1236
Lattice="12.885107713967141 0.0 0.0 0.0 62.46270628826586 0.0 0.0 0.0 14.897045972817388" Properties=species:S:1:pos:R:3:initial_magmoms:R:1:initial_charges:R:1:momenta:R:3:forces:R:3:charge:R:1 energy=-6237.903517732995 stress="0.007418838776045428 -0.0005259899418202223 -0.0007410152795246736 -0.0005259899418202223 0.0006881427591047486 0.00028098957340769496 -0.0007410152795246736 0.00028098957340769496 0.009008950184344739" pbc="T T T"
C        2.18236314       4.15625535      14.83937159       0.00000000       0.37321115      -0.55857615      -0.07489748       0.15483754      -1.26615208       0.25617022       1.16612163      -0.00000000
C        2.84760415       3.78561723       1.22499797       0.00000000       0.00364727      -0.25393758       0.16872071      -0.16697409       0.85346024       0.10107673       0.12775439      -0.00000000
C        2.14790274       3.77914894       2.44073967       0.00000000       0.02248673       0.61462209       0.32692973       0.04352505      -0.99694403       0.12845046      -0.83598556      -0.00000000
C        2.84629143       3.83012639       3.66445923       0.00000000       0.02532413      -0.08630914       0.08968034      -0.36428860      -0.59634988      -0.28263198      -0.18119653      -0.00000000
C        2.12967038       3.87948258       4.90062097       0.00000000       0.01666849      -0.42471860       0.72233407      -0.91398566       0.23719823      -0.55086225       1.85133908      -0.00000000
C        2.82974148       3.97252186       6.13802547       0.00000000       0.03780964       0.06348178      -0.41650362      -0.01060648      -1.58262605       0.26677066      -1.22880604      -0.00000000
C        2.09204587       4.09817244       7.38755929       0.00000000       0.30238760       0.20226410      -0.29474489      -0.92544905      -0.73985647      -0.29515400       0.55960429      -0.00000000
C        2.82081068       4.07116958       8.69814611       0.00000000       0.31285834       0.55328189      -0.23334849      -0.73131069       0.25794686       0.58862725       0.45000980      -0.00000000
C        2.05755511       3.87597848       9.93763399       0.00000000       0.04165277       0.56961786       0.17685123      -0.07595220       0.42058437       0.01870711      -0.56483782      -0.00000000
C        2.78757285       4.19330086      11.17218447       0.00000000       0.33155295      -0.10587334       0.34718925      -0.12606440       0.95412963       0.56900132      -0.37087550      -0.00000000
C        2.12501492       3.87919729      12.43109021       0.00000000       0.24349177      -0.13734973      -0.47721650       0.22362714      -0.90345006       0.12753171      -0.90135560      -0.00000000
C        2.89172990       3.77127398      13.61547682       0.00000000       0.04025874      -1.02625028       0.33859575      -0.61935187       2.50467363      -0.05240446       1.34984669      -0.00000000
C        4.25864781       3.72046626       1.22186568       0.00000000       0.01909224      -0.09659061       0.26106370      -0.53889253      -0.86662534       0.07499677      -0.54543650      -0.00000000
C        4.93916586       3.83868624       2.44610211       0.00000000       0.03391386       0.25201640       0.94364959       0.13779132      -0.36521718      -0.16686928       0.31844504      -0.00000000
C        4.22677466       3.90169669       3.62300306       0.00000000       0.01383439       0.36292801      -0.39410204       0.57802102       0.29636775       0.31695167       0.64207514      -0.00000000
C        4.87249073       4.47760408       4.83377879       0.00000000       0.43902904       0.49935284       0.22641239      -0.22705108       2.39287888      -0.05309142       0.64310627      -0.00000000
C        4.24299409       4.24481037       6.17340336       0.00000000       0.29988322       0.66339219       0.26960383       1.04628446      -0.24356804      -0.28018131       1.22023170      -0.00000000
C        4.99416931       4.07190495       7.50090169       0.00000000       0.27754006      -0.23877299       0.40925525      -1.61603525       0.47476572      -0.03903976      -0.87534188      -0.00000000
C        4.28174300       3.87472887       8.77058863       0.00000000       0.03494374      -0.18176958       0.02759406       0.56236081       0.15809285       0.29280553      -1.22278997      -0.00000000
C        5.04014169       4.00639961       9.88898860       0.00000000       0.00594783       0.35020474       0.66935468       0.42093162      -1.14326241      -0.07955843       1.08932843      -0.00000000
C        4.34334576       4.52966093      11.18188555       0.00000000       0.70609695      -0.12412814      -0.08384838      -0.00221825       0.44573428      -1.15655440       0.01867081      -0.00000000
C        5.04081212       3.85857653      12.39665341       0.00000000      -0.01518074       0.24764303       0.12333381       0.11748594       0.01513676       0.01715581       0.23160263      -0.00000000
C        4.32419336       3.72722037      13.62421141       0.00000000       0.03053667       0.71227548       0.14286338       0.33962823      -2.88296563      -0.06549331       0.42264001      -0.00000000
C        4.96808955       3.68938820      14.88997849       0.00000000       0.03037450      -0.00701065      -0.89969419      -0.19288335       1.45924574       0.28829008      -0.57862282      -0.00000000
C        6.40871756       3.70312645       0.00541731       0.00000000       0.02392089       0.57400601       0.64989149      -0.16177686      -0.18249678      -0.17179433       0.48633318      -0.00000000
C        7.08004793       3.87349273       1.21088098       0.00000000       0.05347357      -0.18095548      -0.09185750      -0.56204113       0.71985541       0.24672191      -0.23412637      -0.00000000
C        6.34668614       4.16254997       2.42774599       0.00000000       0.26788419       0.64367181      -0.08510571      -0.05359371       1.01688420      -0.00921146       0.02732223      -0.00000000
C        7.12167778       4.44556915       3.70476346       0.00000000       0.37475431      -0.92378069       0.85977524       0.49261921       0.29497046      -0.34073932       0.34799639      -0.00000000
C        6.41256739       4.18033698       4.96781814       0.00000000       0.00657584      -0.07715588       0.20360822       0.60288785       0.12641027       0.90640311       0.47583677      -0.00000000
C        7.10016259       4.18793022       6.18155001       0.00000000       0.03266915      -0.36885146      -0.60881773       0.74145509      -0.75212638      -0.51970828       0.30248934      -0.00000000
C        6.46577045       4.03144076       7.45174692       0.00000000       0.04601505       0.52808960      -0.32956367       0.54900894      -0.32756378      -0.51585721      -0.34140998      -0.00000000
C        7.12987297       4.10461937       8.65509657       0.00000000       0.01380446      -0.03742978      -0.03294406      -0.10273852       0.13391120      -0.09287937       1.26425515      -0.00000000
C        6.43760336       4.03262928       9.89210973       0.00000000      -0.00203070      -0.58213091       0.16599542       0.39694314      -0.11216812       0.08694745      -0.95219397      -0.00000000
C        7.14160959       4.31044267      11.18620217       0.00000000       0.47395810       0.11112552       0.16024747      -0.25996538       0.23534811      -0.13969634       0.46882886      -0.00000000
C        6.39502236       3.79516891      12.41766608       0.00000000       0.01986768       0.11877840      -0.48707630      -0.44598825       0.79459172       0.31111928      -0.31160816      -0.00000000
C        7.15263838       3.66449522      13.64440639       0.00000000       0.03199759       0.02693087       0.23611941       0.08787673      -0.80705490       0.19092784       0.00311293      -0.00000000
C        8.55987812       4.04584449       1.27063174       0.00000000       0.25522727       0.23952918       0.63473415      -0.08104975      -0.33348913       0.36412367      -0.26685111      -0.00000000
C        9.36063238       3.97300813       2.50981737       0.00000000       0.04839204       0.14498804      -0.25706453       0.35071703      -0.93695440       0.19682125      -0.09457870      -0.00000000
C        8.64724728       4.41638351       3.70378093       0.00000000       0.30846101       0.09591241       0.18304545       0.27508901      -0.31419463       0.25744278       0.62306169      -0.00000000
C        9.34557966       4.54007794       5.03354085       0.00000000       0.31497651       0.56650434       0.37746381       0.08810664       0.14717285       0.55614588      -0.81887168      -0.00000000
C        8.46870679       4.84420342       6.29748525       0.00000000       0.46338221       0.51970193       0.50509672      -0.08560462       0.49235715      -0.10507584      -1.03263785      -0.00000000
C        9.42530959       4.77661694       7.50548080       0.00000000       0.51146078       0.34435175       0.32521070      -0.36968148       1.21145983      -0.30311424       0.85980313      -0.00000000
C        8.50088799       4.72206399       8.83810574       0.00000000       0.54683536      -0.15380166       0.56076124      -0.11424357       1.02708227       0.16100850      -0.30258951      -0.00000000
C        9.28435343       4.04861520      10.00511768       0.00000000      -0.00883472      -0.60685714      -0.77850164      -0.66746255       0.04182180       0.87356901      -1.11125844      -0.00000000
C        8.60846590       3.91805559      11.13364921       0.00000000      -0.00724886      -0.46673697       0.15986942      -0.26472145      -0.13578835      -0.26804057       1.19799151      -0.00000000
C        9.25853099       4.01802820      12.46889949       0.00000000       0.32866421       0.79012840       0.15325115       0.02176637       1.10077972       0.60171676      -1.36253237      -0.00000000
C        8.51302089       3.78744743      13.66584787       0.00000000       0.03238825       0.38740398      -0.63052980      -0.41150265       0.15515108      -0.07919798       0.15867115      -0.00000000
C        9.29051360       4.03084788      14.88751229       0.00000000       0.34293482       0.84950786       0.36081077       0.98437759       0.34409485       0.60960716      -0.17820945      -0.00000000
C       10.78133726       3.84418514      14.87717046       0.00000000       0.03110365      -0.09886533       0.08664398      -0.32736336      -0.15555655      -0.30566085       0.20368994      -0.00000000
C       11.41159227       3.88687787       1.21977213       0.00000000       0.02587133      -0.78666215      -0.39090884      -0.86830071       0.05679957       0.01638929       0.26303117      -0.00000000
C       10.72637697       4.00464574       2.45085859       0.00000000       0.01847627      -0.26570790       1.02612872      -0.30846842      -0.12233030      -0.49354028       0.10543328      -0.00000000
C       11.50556430       4.38042530       3.70035433       0.00000000       0.36429778       0.32507368       0.92025023      -0.55808231      -0.03710880       0.39619432      -0.20615786      -0.00000000
C       10.77941828       4.12314238       5.02012263       0.00000000       0.01797730      -0.07046915       0.30153935      -0.55882345      -1.05484434       0.75041004      -1.07398094      -0.00000000
C       11.42626804       3.84262913       6.17085574       0.00000000       0.03799929      -0.85131067       0.02899725      -0.67776468       0.23772033      -0.02748138       0.32133582      -0.00000000
C       10.73941884       3.90290867       7.42943615       0.00000000      -0.00193091      -0.21207333      -0.43453645       0.44561063      -1.48286326       0.09527109       0.26551264      -0.00000000
C       11.41525816       3.77882134       8.60262976       0.00000000       0.00872884      -0.37864820      -0.36167926       0.04042348       1.00091103       0.29543780       1.70567473      -0.00000000
C       10.77044297       4.30302217       9.92692907       0.00000000       0.47073856       0.30645267       0.27398641       0.04202188      -0.11971373       0.99437753      -1.10575975      -0.00000000
C       11.48978911       3.94871142      11.19872028       0.00000000       0.04179428       0.02928566       0.22225275      -0.05294630       0.71267474      -0.26654235      -1.10698683      -0.00000000
C       10.79645557       4.05501472      12.47180407       0.00000000       0.27840307      -1.24903002       0.26504403      -0.21001512      -0.52144809       0.33500827      -0.49934710      -0.00000000
C       11.52369888       3.78551232      13.70169587       0.00000000       0.03793247       0.07701413       0.46218378      -0.43238070      -1.16644655      -0.33474509      -0.08247374      -0.00000000
C       12.85618593       4.17465030       1.20769931       0.00000000       0.35572180       0.08490381      -0.14359882       0.21077135       0.52868642       0.49512973      -0.58990279      -0.00000000
C        0.71323082       3.87343419       2.44942044       0.00000000      -0.00647788       0.30406474       0.39983278       0.03794493       0.52057194      -0.14345341       0.96193105      -0.00000000
C        0.04072455       3.91695065       3.66220785       0.00000000       0.02112629       0.00559640      -0.07813026       0.05969333      -0.36081881      -0.43434840       0.12744591      -0.00000000
C        0.67661806       3.81360485       4.90281361       0.00000000       0.02026509      -1.12772639      -0.24777747       0.58734862       1.41322556       0.44781284       0.42160086      -0.00000000
C       12.86289013       3.78158657       6.14741666       0.00000000       0.02021928       0.76899503       0.66190528       0.02029591      -0.03660146      -0.38101912       0.39031277      -0.00000000
C        0.62279541       3.75934432       7.38562450       0.00000000       0.03106093       0.20361529       0.21410350       0.36724098       1.56865028       0.77834200      -0.06294823      -0.00000000
C       12.85147003       3.70798857       8.63016821       0.00000000       0.02386313       0.37375029       0.08997590       0.06872170      -0.62042775      -0.08358148      -0.28013073      -0.00000000
C        0.69957562       3.73070713       9.87732359       0.00000000       0.02704559       0.53667463       0.23795214       0.68497831      -0.18981507      -0.00421638      -0.05662691      -0.00000000
C       12.86733431       3.71992544      11.13247696       0.00000000       0.02147710       0.15549355       0.01864874      -0.29393006      -1.05894658       0.17975163       1.38739822      -0.00000000
C        0.68015666       3.64205691      12.37084924       0.00000000       0.04082152       0.07852530      -0.10729847       0.17255755       0.46230542      -0.13241934       0.13544174      -0.00000000
C        0.04989543       3.66387174      13.63238138       0.00000000       0.02910163       0.04738120       0.08595412      -0.53453590      -0.71075914       0.22412807       1.01909344      -0.00000000
C        0.70334140       3.82082031      14.85064544       0.00000000       0.00313134      -0.54255820       0.39352082       0.34386343       0.79864462       0.35274029      -0.22536021      -0.00000000
C        0.64496071       0.74969229      14.83190005       0.00000000       0.00251172       0.05653361      -0.47820849       0.03079673       0.73533344       0.03757851      -0.60737538       0.00000000
C        1.37685485       0.81660809       1.14746556       0.00000000       0.00266740       0.37211688       0.13233140      -0.25875451      -0.17203051      -0.95584271       1.00330160       0.00000000
C        0.67854615       0.81142538       2.40990437       0.00000000       0.00123805      -0.29730087       0.20164928       0.48568336      -0.39352973       0.53222326       0.09393254       0.00000000
C        1.38725173       0.78509308       3.65578566       0.00000000      -0.00024580      -0.77655361       0.47533208       0.00049706       0.27695799      -0.48616291       0.36414161       0.00000000
C        0.67403876       0.76644504       4.90691124       0.00000000       0.00285202       0.24632533       0.66172929       0.60449003      -0.22291805       0.39576511      -0.97581545       0.00000000
C        1.38898095       0.78797900       6.14694114       0.00000000       0.00135110       0.02039066      -0.18025323      -0.41238238       0.09526310      -0.48600801      -0.59269339       0.00000000
C        0.65850682       0.76377684       7.34844760       0.00000000       0.00190071       0.49777580      -0.20982351       0.65009542       0.45339418      -0.14122077       1.41697694       0.00000000
C        1.36749460       0.75572079       8.59907187       0.00000000       0.00409958      -0.19432791      -0.11462203       0.56717491       0.57694891       0.41005272       0.02637189       0.00000000
C        0.63139800       0.73378070       9.84581269       0.00000000       0.00721777      -0.50639527       0.39038291      -0.26947705       0.53744719      -0.43106007       0.56402226       0.00000000
C        1.34710017       0.65200910      11.09204226       0.00000000       0.00542979      -0.21886156       0.23036039      -0.11967621       0.38000055       1.30669228       0.37789033       0.00000000
C        0.63140782       0.66252359      12.34314954       0.00000000       0.00327619      -0.15693741      -0.00173155       1.01949626       0.26474024       0.12814216      -0.78979192       0.00000000
C        1.36234324       0.68141448      13.58585035       0.00000000       0.00579089      -0.11341316       0.00750731      -0.35294081      -0.54497852       0.47100479       0.22621013       0.00000000
C        2.79294285       0.73405506       1.17001522       0.00000000       0.00025532      -0.50416912       0.08048823       0.57122879       0.80414830       0.55650452       0.76565007       0.00000000
C        3.55177586       0.75893639       2.43703537       0.00000000       0.00113562      -0.17375847       0.18735798      -1.32450423      -0.61969046      -0.39587335      -0.51666188       0.00000000
C        2.84307134       0.74362155       3.68805882       0.00000000       0.00308388      -0.08712146      -0.03836973      -0.40794964      -0.49626540       0.82757557      -1.17283837       0.00000000
C        3.55048157       0.82594461       4.91482799       0.00000000       0.00505679      -0.26124496      -0.14060330      -0.04775339       0.13308094      -1.10279701      -0.11878775       0.00000000
C        2.82369129       0.79418864       6.15733051       0.00000000       0.00486034      -0.44782162      -0.05240537      -0.62400226      -0.21944006       0.68904803      -0.83870575       0.00000000
C        3.52651329       0.83538833       7.36719433       0.00000000       0.00576510       0.09899909       0.35249841       0.05672642       0.81483945      -0.82764524       0.99228931       0.00000000
C        2.82663820       0.82512233       8.60021586       0.00000000       0.00729750      -0.41074703       0.31558640      -0.83059589      -1.05317843      -0.13030721       1.59264048       0.00000000
C        3.54505104       0.83025060       9.89825572       0.00000000       0.00996328      -0.73293182      -0.31383565      -0.19043040      -1.04450193      -0.38181202      -1.93548682       0.00000000
C        2.80758534       0.77301220      11.12160837       0.00000000       0.00792454       0.08557418      -0.05315273      -0.39375796      -1.03959308      -1.01493385      -0.98546107       0.00000000
C        3.49974953       0.68226208      12.33230970       0.00000000       0.00855434       0.36747918      -0.76871684      -0.23795400       0.56075566       0.73158721       1.43624902       0.00000000
C        2.77754542       0.71710107      13.60775540       0.00000000       0.00452973      -0.34022551       0.10597305      -0.33295349       0.49678465      -0.66892118      -1.13200234       0.00000000
C        3.49463440       0.70142981      14.83685517       0.00000000       0.00310477       0.47094183      -0.10907965       0.13739540       0.25684330       0.31976565       0.20927308       0.00000000
C        4.92828692       0.71383366      14.84748240       0.00000000       0.00099555      -0.53521830      -0.32056368      -0.47159507       0.29201294      -0.23131645      -0.81257722       0.00000000
C        5.67633726       0.78006770       1.15698850       0.00000000       0.00187444      -0.48194119      -0.02708331       0.50871846      -0.80020228      -0.19800111       0.38887003       0.00000000
C        4.99070667       0.78418705       2.41238652       0.00000000       0.00429625      -0.52729034       0.22155004      -0.06748711      -1.13967674      -0.34378202       0.24574159       0.00000000
C        5.69685478       0.77084387       3.64104933       0.00000000       0.00728313      -0.60352655      -0.20581099       0.53007012      -0.34163542       1.04514714       0.64676195       0.00000000
C        4.98379005       0.79234574       4.89451760       0.00000000       0.00778791       0.57578419      -0.16935093       0.29392282      -0.17113047      -0.08613114       0.28057161       0.00000000
C        5.68872982       0.78057579       6.16552543       0.00000000       0.00596519      -0.57474368       0.18165038      -0.57140935       0.35579843       0.32263609      -0.86455543       0.00000000
C        4.97891553       0.76772087       7.39725161       0.00000000       0.00727935       0.47386208       0.05200926       0.24265040      -0.52908902       1.37512790      -0.61381287       0.00000000
C        5.67664383       0.88025658       8.62700110       0.00000000       0.00822147       0.72454149       0.09494980       0.06923967       0.25902308      -1.46842260      -0.34499788       0.00000000
C        4.96172373       0.78305544       9.85528400       0.00000000       0.00804970      -0.26901259      -0.39717861      -0.57067319      -0.91295251       0.90758841       0.38817198       0.00000000
C        5.63780022       0.71836695      11.07807577       0.00000000       0.00631555      -0.64990715       0.30921624       0.38804135       0.39556607      -0.59396050       1.42941472       0.00000000
C        4.93515710       0.65591775      12.32728828       0.00000000       0.00559062       0.01927795      -0.38412151       1.38315220      -0.50595269       0.29989549       0.53444224       0.00000000
C        5.63685995       0.64462330      13.60588507       0.00000000       0.00124769       0.67972423      -0.09288228      -0.01623505       0.11649790       0.42475737      -0.80528931       0.00000000
C        7.07916630       0.81155100       1.15632198       0.00000000       0.00397836       0.24545173      -0.37932501      -0.39487147       0.85020115      -0.35926783       0.93888859       0.00000000
C        7.82058786       0.84593212       2.41236108       0.00000000       0.00561530       0.15403260       0.26937805       0.05282170       0.12313186      -0.03366670      -0.84115005       0.00000000
C        7.12936467       0.87468082       3.63462896       0.00000000       0.00744795      -0.66938147       0.45654920      -0.95519817      -0.38520991      -1.10353964       0.56126449       0.00000000
C        7.82943466       0.81975954       4.87292310       0.00000000       0.00824409       0.14373686      -0.82668664       0.98950745       0.27146238       0.90683498       1.11205541       0.00000000
C        7.12040783       0.84472159       6.14155300       0.00000000       0.01041096       0.40855242       0.32178603      -0.48868278      -0.26625012      -0.50485328      -0.01986028       0.00000000
C        7.81604894       0.85095383       7.38948095       0.00000000       0.00684641       0.64424917      -0.20603266       0.49999274       0.24265038      -0.28203156      -0.20775542       0.00000000
C        7.09893476       0.83277107       8.62521838       0.00000000       0.00874052      -0.48405639      -0.36872630      -0.04966339       0.65156882       0.11731081       0.52586569       0.00000000
C        7.82572417       0.74863574       9.89656330       0.00000000       0.00973613       0.07619283      -0.50662916       0.22781086      -1.24039584       0.01540760      -1.29883792       0.00000000
C        7.05750004       0.67504253      11.10778454       0.00000000       0.00765385      -0.26008731      -0.30898696       0.24762652       1.64797019       0.87417734      -0.19340338       0.00000000
C        7.78974832       0.71514071      12.32297165       0.00000000       0.00894873       1.08925409      -0.21042797      -0.53178925      -0.28303980      -0.12148458       1.56774758       0.00000000
C        7.05974356       0.68166164      13.60083245       0.00000000       0.00638974      -0.36257466       0.13446395      -0.19181881       0.70942307       0.11184672      -0.68111603       0.00000000
C        7.77918130       0.73816943      14.83983738       0.00000000       0.00379261       0.08543389      -0.11267389       0.35924565       0.47495199       0.47256674      -0.85167348       0.00000000
C        9.21370810       0.78992647      14.84581301       0.00000000       0.00575133       1.01719965       0.27414746      -0.26827185       0.53263870      -0.53812097      -0.34600705       0.00000000
C        9.94876991       0.78459266       1.17906084       0.00000000       0.00527694      -0.39284994       0.22786673      -0.13717623       0.80305848       0.32747678      -0.75369488       0.00000000
C        9.25635012       0.80940611       2.41867679       0.00000000       0.00756080      -0.27369399      -0.32064263       0.19033191      -0.38573567       0.90797347       0.12364956       0.00000000
C        9.96617711       0.90321391       3.65475055       0.00000000       0.00884859      -0.36192241       0.59646733      -0.34421903       0.33940115      -1.02740698       0.24806189       0.00000000
C        9.25736504       0.84015241       4.90255369       0.00000000       0.00934506       0.86764011      -0.21329191       1.27113188       0.00756566       0.25864941      -0.39771515       0.00000000
C        9.97305615       0.79309890       6.15337898       0.00000000       0.00920447       0.54454477       0.08619164      -0.62028972       0.05940085      -0.25943609      -0.06176037       0.00000000
C        9.25888734       0.78607740       7.39186643       0.00000000       0.00985902       0.08120249      -0.55533055       0.16403525      -0.11924608       0.21396617       0.14563979       0.00000000
C        9.96659377       0.73555591       8.63292613       0.00000000       0.01105872       0.39749832      -0.21043364      -0.49804872      -0.04797408       0.27980616      -0.64661009       0.00000000
C        9.23653296       0.75020561       9.88163623       0.00000000       0.01159237      -0.08234332       0.76383110      -0.02138494       0.42783451       0.27144081      -0.19052601       0.00000000
C        9.94752419       0.80621459      11.11209447       0.00000000       0.00967980      -0.03801029       0.21984157      -1.15831947      -0.35537667      -0.21544832       0.30182012       0.00000000
C        9.23386388       0.80303981      12.34436565       0.00000000       0.00898373      -0.19454366      -0.52532007      -0.16160384      -0.65533639      -0.45283713      -0.05589353       0.00000000
C        9.93873415       0.77813127      13.59486942       0.00000000       0.00651892      -0.29674421      -0.06571778      -0.57191394       0.40729464       0.39384518       0.55519149       0.00000000
C       11.40815920       0.80884466       1.14574388       0.00000000       0.00584299      -0.28472925       0.53108311      -0.23488150      -0.90849425      -0.06698539       1.44699658       0.00000000
C       12.12695900       0.86864566       2.39722613       0.00000000       0.00402636       0.46041867      -0.25313565      -0.27838236      -0.04748622      -0.58198567       0.17723149       0.00000000
C       11.41082103       0.86361199       3.65008993       0.00000000       0.00612740       0.45361103      -0.26702562       0.25685480      -0.08248686       0.21672796      -0.16993361       0.00000000
C       12.12128062       0.78578019       4.88481498       0.00000000       0.00128654       0.55740529      -0.24857208      -0.59516964       0.12946495      -0.18063803       0.67822981       0.00000000
C       11.40547016       0.71847672       6.15179388       0.00000000       0.00812131      -0.30344898       0.16055462       0.06169549      -0.53022511       0.90568922      -1.18826057       0.00000000
C       12.11146093       0.72859146       7.36806248       0.00000000       0.00549702       0.23772854       0.09311187       0.00929232       0.16403122      -0.14776185       0.08523663       0.00000000
C       11.40173335       0.72937926       8.59340004       0.00000000       0.00603653      -0.34887349      -0.12361996       0.05525292      -0.56486630       0.28501922       1.62818566       0.00000000
C       12.09338121       0.76171369       9.87380277       0.00000000       0.00492268      -0.37602641      -0.12768202      -0.12087080       0.10572815      -0.23922652      -0.83707679       0.00000000
C       11.36707243       0.78753280      11.12409588       0.00000000       0.00404536      -0.10785315      -0.45923623       0.21607209       0.53263330      -0.14829140      -1.23700261       0.00000000
C       12.07739492       0.73277413      12.32557560       0.00000000       0.00444144      -0.00741539       0.20396693       0.00357790       0.59779505       0.03896527       1.93770736       0.00000000