1236
Lattice="12.83455731436962 0.0 0.0 0.0 362.2130223747089 0.0 0.0 0.0 14.829489029118589" Properties=species:S:1:pos:R:3:initial_magmoms:R:1:initial_charges:R:1:momenta:R:3:forces:R:3:charge:R:1 energy=-6284.050154547196 stress="0.0002899449507438656 3.24998225025461e-05 0.00014727629497789284 3.24998225025461e-05 0.0006095660336327183 8.491829373519017e-05 0.00014727629497789284 8.491829373519017e-05 0.0002864786774413658" pbc="T T T"
C       10.16773120       5.52450916       0.93560335       0.00000000       0.37321115      -0.09553907      -1.10962232       0.35195923       2.64329915      -0.17785234       1.17589674      -0.00100000
C       10.89419101       5.07307600       2.22662077       0.00000000       0.00364727       0.91913906      -0.65632605       0.90864518      -0.62154894       0.00893099      -0.13349736      -0.00100000
C       10.22617048       4.96007426       3.50223380       0.00000000       0.02248673       0.51565779      -0.21973163       0.39846223      -1.62212121      -0.00675458      -1.00385223      -0.00100000
C       10.92620747       5.12474739       4.72263203       0.00000000       0.02532413       0.93992882       0.06523927       0.74613167      -0.99429422      -1.51258907      -0.70739193      -0.00100000
C       10.27734332       4.84013945       5.95531399       0.00000000       0.01666849      -1.44037815       0.27695642       0.62584629       1.84760070       1.38795881      -1.86770870      -0.00100000
C       10.93922276       5.10095053       7.17614965       0.00000000       0.03780964       0.40928415      -0.65634778       0.47623843      -2.62319669      -1.46805484       0.23664998      -0.00100000
C       10.21280418       5.07385982       8.34757626       0.00000000       0.30238760       0.00725666       1.01502410       0.63187871       0.99559462       0.81878923       0.29679034      -0.00100000
C       10.93482285       5.82233097       9.48974157       0.00000000       0.31285834       0.54574605       0.90427046       0.75818965       0.39042250      -0.56747222       0.44191596      -0.00100000
C       10.22326899       5.62160728      10.84538066       0.00000000       0.04165277       0.84863863      -0.95303267      -1.23243150      -1.66907575       0.03569898      -2.11288825      -0.00100000
C       11.00594314       5.63430469      12.06190242       0.00000000       0.33155295      -0.37372136       0.78596142       0.70380641      -1.89207356       0.24875306       2.19396910      -0.00100000
C       10.29065700       5.34027029      13.33172356       0.00000000       0.24349177      -0.07350657       0.66246212      -0.69175907       0.55489588      -1.29440712       0.87484450      -0.00100000
C       11.01590922       5.23315306      14.53191919       0.00000000       0.04025874       0.14850743      -0.40878612       1.00753908      -1.08545047      -0.36482861      -0.92874161      -0.00100000
C       12.26270186       4.88186892       2.16152713       0.00000000       0.01909224       0.34756675      -0.33429094       0.22231795       1.44431006       0.59570653       1.07886958      -0.00100000
C        0.21028614       4.98537826       3.37564491       0.00000000       0.03391386      -0.70973185       2.14189202      -0.27148117       0.28630420      -0.33283226       0.85353391      -0.00100000
C       12.28755698       5.65760332       4.53822822       0.00000000       0.01383439       0.15529021      -0.03524628      -0.58849240       1.44342427       0.19562226       0.18968287      -0.00100000
C        0.19334334       5.76155063       5.90925272       0.00000000       0.43902904      -0.07884891       0.01275213      -0.05571260      -0.58691415      -1.56825098      -0.24824435      -0.00100000
C       12.27837070       5.49484570       7.19482265       0.00000000       0.29988322       0.04634094      -0.11788424       0.32968601       3.58952277       0.95735760       0.25874312      -0.00100000
C        0.29234784       5.27795181       8.43582083       0.00000000       0.27754006       0.99080841       0.74828126      -0.54914206      -1.22526202       0.59847967       0.36886809      -0.00100000
C       12.41283398       5.37582502       9.63750626       0.00000000       0.03494374      -0.58777295      -0.55441404       0.49043512      -0.24564647      -0.11104453      -0.78380934      -0.00100000
C        0.25409314       5.39486705      10.85980143       0.00000000       0.00594783      -1.37874039       0.61668450      -0.24039558       1.29367078      -0.62871048      -0.73064750      -0.00100000
C       12.45641262       5.81289374      12.12327128       0.00000000       0.70609695       0.03985279       0.69625538      -0.55187080       2.12948181      -1.00465063       1.21754765      -0.00100000
C        0.32790518       5.05850506      13.29981514       0.00000000      -0.01518074      -0.84703482      -0.88818549       0.50118919      -0.67926575       0.66979638       1.01892663      -0.00100000
C       12.43656774       5.03775510      14.53595993       0.00000000       0.03053667      -0.64308828      -0.08920627       0.08632670      -0.60410287      -0.09390455       1.15497875      -0.00100000
C        0.23051751       4.89893889       1.01306380       0.00000000       0.03037450      -0.15408663       0.33374691      -0.12705608       1.74829318      -1.12876129      -2.71535009      -0.00100000
C        1.71995757       4.71030907       1.02897573       0.00000000       0.02392089       0.97614441       1.16277235       0.54344651      -4.05503036       0.87818085      -2.03408526      -0.00100000
C        2.38180343       4.82129455       2.22173416       0.00000000       0.05347357       1.20657426      -0.69466809       0.10116412       0.73459421      -0.88855466       1.39952369      -0.00100000
C        1.59628095       4.97774585       3.37683747       0.00000000       0.26788419      -0.52129644      -0.31328361       0.36145454      -0.07050935       0.26231541       1.36091056      -0.00100000
C        2.27654206       5.75716620       4.54033426       0.00000000       0.37475431      -0.15178789       0.24430653       0.42220388      -0.08700076       0.29098613      -0.26244211      -0.00100000
C        1.64401676       5.49895155       5.93747799       0.00000000       0.00657584       0.17400463      -0.97979575      -0.88192296       0.51172042       1.74006429      -0.58592438      -0.00100000
C        2.29106364       5.66951201       7.14255819       0.00000000       0.03266915       1.32566134      -0.54395438       0.59149318       0.91883990      -1.70976412      -0.12965995      -0.00100000
C        1.69768583       5.38435443       8.44045696       0.00000000       0.04601505       0.48655673      -0.72841479      -0.35024158      -0.59219257      -0.09158663      -0.98208476      -0.00100000
C        2.40687817       5.37079498       9.65496757       0.00000000       0.01380446       0.21291419      -0.27011977       0.54016051      -1.67224882      -0.34573407       0.78048139      -0.00100000
C        1.64733965       5.24769586      10.91404735       0.00000000      -0.00203070       0.33904249       0.46824181      -0.88343339       1.89473995       0.44110363      -2.77287677      -0.00100000
C        2.47089681       5.54375165      12.17870630       0.00000000       0.47395810       0.56343715       0.61065507       1.13115467      -0.98116194      -0.96063553      -0.50247664      -0.00100000
C        1.71002879       4.94479046      13.36281152       0.00000000       0.01986768       0.40234598      -0.58589947      -0.97030780      -0.67432591       0.08534721      -0.08594697      -0.00100000
C        2.35963881       4.74586714      14.60224739       0.00000000       0.03199759       0.25403325      -0.31412009      -0.73800891       1.40390997       0.05829853      -0.87914373      -0.00100000
C        3.79458073       4.78284380       2.26461302       0.00000000       0.25522727      -1.08451341      -0.41134691      -1.30468402       0.18128519       0.58711260      -1.26702321      -0.00100000
C        4.54558315       4.97741448       3.41209743       0.00000000       0.04839204       0.26751526       0.87146130       0.30664165      -2.69928398       0.21723727       1.02082854      -0.00100000
C        3.81434825       5.71142081       4.53004328       0.00000000       0.30846101      -0.33744244      -0.50838303       0.88371641       0.82881709      -1.88515295       0.91956193      -0.00100000
C        4.52675306       5.86383289       5.90192409       0.00000000       0.31497651       0.61914141      -0.40720169      -0.58894790       0.31490102      -0.00093910      -0.41719065      -0.00100000
C        3.66501057       6.27883931       7.13998108       0.00000000       0.46338221      -1.66067518       0.50987728       1.17644766       0.62447126       0.55634269      -0.15014251      -0.00100000
C        4.62816871       6.19117179       8.39880026       0.00000000       0.51146078       0.87559698       0.14378837       0.24066675       1.18033554       1.57430115       0.27752211      -0.00100000
C        3.72843794       6.09112924       9.73686898       0.00000000       0.54683536      -0.20199442       0.03647500       0.25368766      -0.31398858      -0.14412945      -0.32254045      -0.00100000
C        4.54701556       5.57066094      10.85570994       0.00000000      -0.00883472      -1.44740157      -0.68604150      -0.42550692       1.19507180       0.56428705       1.73546961      -0.00100000
C        3.97182268       5.18922303      12.05933104       0.00000000      -0.00724886      -0.74202679       0.19762295      -0.55016442      -2.46412660       0.67485395      -1.51983378      -0.00100000
C        4.47999586       5.03610512      13.34328100       0.00000000       0.32866421       0.41319095      -0.31576560      -1.07170752       2.95547254       0.55795473      -0.17617958      -0.00100000
C        3.80264951       4.87057849      14.53191638       0.00000000       0.03238825       1.28348163      -0.16184951       0.06424285      -0.83823019      -0.56345437      -1.03615195      -0.00100000
C        4.51491834       5.16019936       0.93942862       0.00000000       0.34293482       0.60901306       0.45905038      -0.53779996      -0.59011923       1.69014705       2.47413296      -0.00100000
C        5.97693586       4.98497886       1.02276497       0.00000000       0.03110365       0.68020329      -0.13803688       0.00923788       0.58794855      -1.78723791      -3.43572495      -0.00100000
C        6.62985974       4.87598737       2.24857075       0.00000000       0.02587133      -0.05364046      -0.43206090      -0.71490515      -0.14560978       0.70963406      -0.48558439      -0.00100000
C        5.90198687       4.92756400       3.41585041       0.00000000       0.01847627      -0.42504674      -0.13580699      -0.65140377       1.74827754       1.01104129       1.39055338      -0.00100000
C        6.67046259       5.45690318       4.67440581       0.00000000       0.36429778      -0.76585162       0.06727916       0.19367744       0.29428874       0.07071446       1.03811827      -0.00100000
C        5.90534451       5.24346396       6.00254999       0.00000000       0.01797730       0.46757975       1.10325384       1.21744942      -0.39898774       1.24946829      -1.24849237      -0.00100000
C        6.61016692       4.98427513       7.14720172       0.00000000       0.03799929      -0.14938307      -0.61382882      -0.81345913       1.18934353      -0.13081800       0.03844891      -0.00100000
C        5.99738678       5.31652105       8.40963683       0.00000000      -0.00193091       0.39390424       2.12623254       0.06711901      -2.48352845       0.62535077      -1.13607628      -0.00100000
C        6.67799840       5.38086263       9.57742070       0.00000000       0.00872884       0.23190471      -0.09730745       1.11075440      -0.21979175      -1.33944705      -0.43094533      -0.00100000
C        6.04421509       5.99529303      10.76275718       0.00000000       0.47073856      -0.45641654      -0.28685395       0.07504098      -1.38627795      -1.97660203       1.12504139      -0.00100000
C        6.69603913       5.62063573      12.14981340       0.00000000       0.04179428       0.05544526       0.57333352       0.42931906       1.25915735       1.62788986      -1.89692071      -0.00100000
C        5.96161815       5.36701020      13.36332470       0.00000000       0.27840307      -0.50765538       0.10413883       0.37633845      -2.40881689      -0.47106236       1.22403203      -0.00100000
C        6.62863215       4.97548034      14.57774564       0.00000000       0.03793247      -0.78837761      -0.48705772      -0.89748547       2.41501066       0.85780999       2.09857709      -0.00100000
C        8.01922592       5.39073688       2.27299243       0.00000000       0.35572180      -0.67569758       1.19740863       0.52182727       0.97591535      -1.13154972      -1.03625085      -0.00100000
C        8.75866814       4.83644471       3.48917092       0.00000000      -0.00647788      -1.60620561       0.38693035       1.29195116       1.43865562       1.29690018       0.58889095      -0.00100000
C        8.10146849       4.78895440       4.71885959       0.00000000       0.02112629       1.14309322      -0.44964112       0.13578888       0.08064941       1.30715417      -2.69286744      -0.00100000
C        8.90791630       4.74687325       5.85876234       0.00000000       0.02026509      -0.68068916      -1.12516177      -0.68324850      -4.50356229      -1.03144064       3.08968093      -0.00100000
C        8.11014296       4.74556588       7.08533389       0.00000000       0.02021928      -0.73338675       0.27630596       1.40753321       0.21355480       0.99445419       1.29063717      -0.00100000
C        8.82500312       4.91661189       8.33395651       0.00000000       0.03106093       0.40627517       0.27768886       0.13434316      -2.43217867      -0.44606168      -0.04214565      -0.00100000
C        8.03400700       5.11223618       9.57637547       0.00000000       0.02386313       0.70463094      -0.06035755       0.85767503       2.42741380       0.27037349      -0.36065194      -0.00100000
C        8.71079017       5.29875286      10.79311199       0.00000000       0.02704559      -1.63477764       0.41114740       0.21569010       2.72463938      -0.28524105       1.02657474      -0.00100000
C        8.17167570       5.33872353      12.07366059       0.00000000       0.02147710      -0.83851931      -0.10931768      -0.35323811      -1.34341607      -0.32646982       0.11608158      -0.00100000
C        8.88483909       5.22144013      13.29529621       0.00000000       0.04082152       0.10855602      -0.07956623      -0.68449837      -0.52524714       0.29766876       0.11324638      -0.00100000
C        8.11952232       5.06918987      14.55258298       0.00000000       0.02910163       0.38835421      -1.62018488       0.27068921      -1.34312020      -0.09153426       0.27376578      -0.00100000
C        8.73264176       5.16844089       0.94415808       0.00000000       0.00313134      -1.04246412       1.67454018      -0.93890127       0.78667997       0.00800192      -0.38006319      -0.00100000
C        0.77865418       1.42000000       0.43596895       0.00000000       0.00000000       0.00000000       0.00000000       0.00000000       0.01341890       0.00096912      -0.01360851       0.00000000
C        1.49168515       1.42000000       1.67175970       0.00000000       0.00000000       0.00000000       0.00000000       0.00000000       0.00047271       0.01271748      -0.00069940       0.00000000
C        0.77865418       1.42000000       2.90755045       0.00000000       0.00000000       0.00000000       0.00000000       0.00000000       0.01223109       0.02539643       0.00177062       0.00000000
C        1.49168515       1.42000000       4.14334121       0.00000000       0.00000000       0.00000000       0.00000000       0.00000000      -0.01781125       0.00132942      -0.00353407       0.00000000
C        0.77865418       1.42000000       5.37913196       0.00000000       0.00000000       0.00000000       0.00000000       0.00000000       0.02598154      -0.02051401      -0.02515085       0.00000000
C        1.49168515       1.42000000       6.61492271       0.00000000       0.00000000       0.00000000       0.00000000       0.00000000      -0.01225479      -0.00114087       0.02750950       0.00000000
C        0.77865418       1.42000000       7.85071346       0.00000000       0.00000000       0.00000000       0.00000000       0.00000000       0.02610888      -0.00257929       0.00218290       0.00000000
C        1.49168515       1.42000000       9.08650422       0.00000000       0.00000000       0.00000000       0.00000000       0.00000000      -0.01775524       0.01021678       0.01931936       0.00000000
C        0.77865418       1.42000000      10.32229497       0.00000000       0.00000000       0.00000000       0.00000000       0.00000000       0.03182322       0.00259519      -0.01177373       0.00000000
C        1.49168515       1.42000000      11.55808572       0.00000000       0.00000000       0.00000000       0.00000000       0.00000000      -0.03433319      -0.00122170      -0.00052867       0.00000000
C        0.77865418       1.42000000      12.79387647       0.00000000       0.00000000       0.00000000       0.00000000       0.00000000       0.02156917       0.00141378      -0.01225983       0.00000000
C        1.49168515       1.42000000      14.02966723       0.00000000       0.00000000       0.00000000       0.00000000       0.00000000      -0.01316607       0.00351769       0.00858804       0.00000000
C        2.91774707       1.42000000       1.67175970       0.00000000       0.00000000       0.00000000       0.00000000       0.00000000      -0.02106028      -0.00758705       0.02458721       0.00000000
C        3.63077803       1.42000000       2.90755045       0.00000000       0.00000000       0.00000000       0.00000000       0.00000000       0.00237911       0.02434980      -0.00583708       0.00000000
C        2.91774707       1.42000000       4.14334121       0.00000000       0.00000000       0.00000000       0.00000000       0.00000000      -0.00714390       0.01282843      -0.01491463       0.00000000
C        3.63077803       1.42000000       5.37913196       0.00000000       0.00000000       0.00000000       0.00000000       0.00000000      -0.00322695      -0.00588000       0.00851099       0.00000000
C        2.91774707       1.42000000       6.61492271       0.00000000       0.00000000       0.00000000       0.00000000       0.00000000      -0.00594970      -0.00064645      -0.00527411       0.00000000
C        3.63077803       1.42000000       7.85071346       0.00000000       0.00000000       0.00000000       0.00000000       0.00000000      -0.00288707       0.00684759       0.02027842       0.00000000
C        2.91774707       1.42000000       9.08650422       0.00000000       0.00000000       0.00000000       0.00000000       0.00000000      -0.00087264       0.00161605       0.00375059       0.00000000
C        3.63077803       1.42000000      10.32229497       0.00000000       0.00000000       0.00000000       0.00000000       0.00000000      -0.02613587      -0.00928861       0.00817899       0.00000000
C        2.91774707       1.42000000      11.55808572       0.00000000       0.00000000       0.00000000       0.00000000       0.00000000       0.02221109       0.00469189      -0.01689113       0.00000000
C        3.63077803       1.42000000      12.79387647       0.00000000       0.00000000       0.00000000       0.00000000       0.00000000      -0.01469969       0.02765175       0.01606783       0.00000000
C        2.91774707       1.42000000      14.02966723       0.00000000       0.00000000       0.00000000       0.00000000       0.00000000       0.00851353       0.00581952      -0.00712312       0.00000000
C        3.63077803       1.42000000       0.43596895       0.00000000       0.00000000       0.00000000       0.00000000       0.00000000      -0.03097675       0.00584282      -0.03303951       0.00000000
C        5.05683996       1.42000000       0.43596895       0.00000000       0.00000000       0.00000000       0.00000000       0.00000000       0.02368219       0.01525548       0.00460223       0.00000000
C        5.76987092       1.42000000       1.67175970       0.00000000       0.00000000       0.00000000       0.00000000       0.00000000       0.01855016       0.01502774      -0.00941671       0.00000000
C        5.05683996       1.42000000       2.90755045       0.00000000       0.00000000       0.00000000       0.00000000       0.00000000       0.00164097       0.01213205       0.01890594       0.00000000
C        5.76987092       1.42000000       4.14334121       0.00000000       0.00000000       0.00000000       0.00000000       0.00000000      -0.01223552       0.00828510      -0.02849866       0.00000000
C        5.05683996       1.42000000       5.37913196       0.00000000       0.00000000       0.00000000       0.00000000       0.00000000       0.00632886       0.00243893       0.01907231       0.00000000
C        5.76987092       1.42000000       6.61492271       0.00000000       0.00000000       0.00000000       0.00000000       0.00000000      -0.01145205      -0.01270701       0.01244681       0.00000000
C        5.05683996       1.42000000       7.85071346       0.00000000       0.00000000       0.00000000       0.00000000       0.00000000       0.00891774       0.00491150      -0.01963122       0.00000000
C        5.76987092       1.42000000       9.08650422       0.00000000       0.00000000       0.00000000       0.00000000       0.00000000      -0.01004756       0.00548212       0.02188576       0.00000000
C        5.05683996       1.42000000      10.32229497       0.00000000       0.00000000       0.00000000       0.00000000       0.00000000       0.01218954      -0.01025743      -0.03978014       0.00000000
C        5.76987092       1.42000000      11.55808572       0.00000000       0.00000000       0.00000000       0.00000000       0.00000000      -0.01539205       0.00739765       0.01042940       0.00000000
C        5.05683996       1.42000000      12.79387647       0.00000000       0.00000000       0.00000000       0.00000000       0.00000000      -0.00172362       0.00424475      -0.00692161       0.00000000
C        5.76987092       1.42000000      14.02966723       0.00000000       0.00000000       0.00000000       0.00000000       0.00000000      -0.00496321       0.01316924       0.00143320       0.00000000
C        7.19593284       1.42000000       1.67175970       0.00000000       0.00000000       0.00000000       0.00000000       0.00000000      -0.01725647      -0.00178100       0.00072731       0.00000000
C        7.90896380       1.42000000       2.90755045       0.00000000       0.00000000       0.00000000       0.00000000       0.00000000      -0.00214563      -0.00599737       0.00961775       0.00000000
C        7.19593284       1.42000000       4.14334121       0.00000000       0.00000000       0.00000000       0.00000000       0.00000000       0.02278742       0.00246626       0.01140087       0.00000000
C        7.90896380       1.42000000       5.37913196       0.00000000       0.00000000       0.00000000       0.00000000       0.00000000       0.00540215      -0.00256121       0.00669084       0.00000000
C        7.19593284       1.42000000       6.61492271       0.00000000       0.00000000       0.00000000       0.00000000       0.00000000       0.02152909       0.01056549       0.00283507       0.00000000
C        7.90896380       1.42000000       7.85071346       0.00000000       0.00000000       0.00000000       0.00000000       0.00000000      -0.00963154       0.00566429      -0.00626006       0.00000000
C        7.19593284       1.42000000       9.08650422       0.00000000       0.00000000       0.00000000       0.00000000       0.00000000       0.01418695       0.00701807      -0.00917636       0.00000000
C        7.90896380       1.42000000      10.32229497       0.00000000       0.00000000       0.00000000       0.00000000       0.00000000      -0.02152838       0.01393871       0.00023825       0.00000000
C        7.19593284       1.42000000      11.55808572       0.00000000       0.00000000       0.00000000       0.00000000       0.00000000       0.02543617       0.00256575      -0.02338834       0.00000000
C        7.90896380       1.42000000      12.79387647       0.00000000       0.00000000       0.00000000       0.00000000       0.00000000      -0.00874234       0.00525916       0.00666049       0.00000000
C        7.19593284       1.42000000      14.02966723       0.00000000       0.00000000       0.00000000       0.00000000       0.00000000       0.00963174       0.00278886       0.00277837       0.00000000
C        7.90896380       1.42000000       0.43596895       0.00000000       0.00000000       0.00000000       0.00000000       0.00000000       0.00075911       0.01300312      -0.01369490       0.00000000
C        9.33502573       1.42000000       0.43596895       0.00000000       0.00000000       0.00000000       0.00000000       0.00000000      -0.00947423      -0.00182841      -0.01720526       0.00000000
C       10.04805669       1.42000000       1.67175970       0.00000000       0.00000000       0.00000000       0.00000000       0.00000000      -0.00527398      -0.00676752       0.00691852       0.00000000
C        9.33502573       1.42000000       2.90755045       0.00000000       0.00000000       0.00000000       0.00000000       0.00000000       0.00470379       0.01064476       0.02445962       0.00000000
C       10.04805669       1.42000000       4.14334121       0.00000000       0.00000000       0.00000000       0.00000000       0.00000000      -0.02418946       0.02745579       0.00491487       0.00000000
C        9.33502573       1.42000000       5.37913196       0.00000000       0.00000000       0.00000000       0.00000000       0.00000000      -0.00639036       0.00629590       0.00322434       0.00000000
C       10.04805669       1.42000000       6.61492271       0.00000000       0.00000000       0.00000000       0.00000000       0.00000000      -0.01658972       0.02208176      -0.00274921       0.00000000
C        9.33502573       1.42000000       7.85071346       0.00000000       0.00000000       0.00000000       0.00000000       0.00000000      -0.00236869       0.01244137      -0.00358502       0.00000000
C       10.04805669       1.42000000       9.08650422       0.00000000       0.00000000       0.00000000       0.00000000       0.00000000      -0.01756733       0.00265153       0.00371851       0.00000000
C        9.33502573       1.42000000      10.32229497       0.00000000       0.00000000       0.00000000       0.00000000       0.00000000       0.01936751       0.01432577      -0.01286517       0.00000000
C       10.04805669       1.42000000      11.55808572       0.00000000       0.00000000       0.00000000       0.00000000       0.00000000      -0.03002768      -0.00679436      -0.00311149       0.00000000
C        9.33502573       1.42000000      12.79387647       0.00000000       0.00000000       0.00000000       0.00000000       0.00000000       0.00843306       0.00902679      -0.00261377       0.00000000
C       10.04805669       1.42000000      14.02966723       0.00000000       0.00000000       0.00000000       0.00000000       0.00000000      -0.00384280       0.00153228      -0.00285784       0.00000000
C       11.47411861       1.42000000       1.67175970       0.00000000       0.00000000       0.00000000       0.00000000       0.00000000       0.01473415       0.00279686      -0.00547475       0.00000000
C       12.18714957       1.42000000       2.90755045       0.00000000       0.00000000       0.00000000       0.00000000       0.00000000       0.00370612       0.00888961       0.01540348       0.00000000
C       11.47411861       1.42000000       4.14334121       0.00000000       0.00000000       0.00000000       0.00000000       0.00000000       0.00716572       0.01789265      -0.01892156       0.00000000
C       12.18714957       1.42000000       5.37913196       0.00000000       0.00000000       0.00000000       0.00000000       0.00000000      -0.01339079       0.01002561       0.00848354       0.00000000
C       11.47411861       1.42000000       6.61492271       0.00000000       0.00000000       0.00000000       0.00000000       0.00000000      -0.00128277      -0.00667500       0.00798432       0.00000000
C       12.18714957       1.42000000       7.85071346       0.00000000       0.00000000       0.00000000       0.00000000       0.00000000       0.00164784       0.00306692       0.00202655       0.00000000
C       11.47411861       1.42000000       9.08650422       0.00000000       0.00000000       0.00000000       0.00000000       0.00000000       0.00816023       0.00469019       0.00900111       0.00000000
C       12.18714957       1.42000000      10.32229497       0.00000000       0.00000000       0.00000000       0.00000000       0.00000000       0.00205660      -0.00282638      -0.02038265       0.00000000
C       11.47411861       1.42000000      11.55808572       0.00000000       0.00000000       0.00000000       0.00000000       0.00000000       0.01630049      -0.00318470      -0.00296529       0.00000000
C       12.18714957       1.42000000      12.79387647       0.00000000       0.00000000       0.00000000       0.00000000       0.00000000       0.00272442       0.01045546       0.01042602       0.00000000