1236
Lattice="12.881178804804083 0.0 0.0 0.0 62.4100363034498 0.0 0.0 0.0 14.903044978573963" Properties=species:S:1:pos:R:3:initial_magmoms:R:1:forces:R:3:charge:R:1 energy=-5478.589856349259 stress="-0.002855953683981521 -8.357327177552795e-05 0.00011122460532732305 -8.357327177552795e-05 -0.02388001249526012 5.79941966714022e-05 0.00011122460532732305 5.79941966714022e-05 0.011354349772914682" pbc="T T T"
C        2.15523448       4.12930569       0.01766196       0.00000000      -0.00249038       0.05099486       0.01124688       0.37321115
C        2.85803094       3.75836395       1.28091138       0.00000000      -0.00405567       0.03857941       0.00442594       0.00364727
C        2.14021911       3.72122271       2.49105637       0.00000000      -0.00318755       0.04684358       0.00350533       0.02248673
C        2.85426599       3.74860162       3.72427696       0.00000000      -0.00274436       0.04001082       0.00153813       0.02532413
C        2.13906968       3.79849074       4.98071627       0.00000000      -0.00668098       0.02750559      -0.00046550       0.01666849
C        2.80741432       3.99418109       6.17139590       0.00000000      -0.00003797       0.02812677       0.00467165       0.03780964
C        2.07347380       4.09946298       7.42737573       0.00000000      -0.00362022       0.02193793       0.00126641       0.30238760
C        2.83246400       4.09996947       8.71902587       0.00000000      -0.00106137       0.04233162       0.00246424       0.31285834
C        2.07247108       3.85826141       9.94762078       0.00000000      -0.00601516       0.04910095       0.00867683       0.04165277
C        2.79106420       4.18040511      11.18624456       0.00000000       0.00087060       0.05849695       0.00840290       0.33155295
C        2.10125420       3.93114355      12.46311772       0.00000000      -0.00429077       0.06274148       0.00669772       0.24349177
C        2.89498949       3.79412545      13.67927938       0.00000000      -0.00138887       0.06948941       0.00877119       0.04025874
C        4.25996322       3.72200824       1.25032109       0.00000000      -0.00263670       0.03149023       0.00431622       0.01909224
C        4.94725178       3.81686717       2.49164535       0.00000000       0.00148897       0.04120892       0.00294443       0.03391386
C        4.25148291       3.87386490       3.69009824       0.00000000      -0.00232804       0.04671790      -0.00186890       0.01383439
C        4.94128516       4.49615139       4.88329111       0.00000000       0.00630524       0.03369270      -0.00486857       0.43902904
C        4.24162678       4.29850138       6.21987507       0.00000000      -0.00277379       0.04349115      -0.00565158       0.29988322
C        5.01500395       4.09073602       7.48495966       0.00000000      -0.00257739       0.04434096       0.00315878       0.27754006
C        4.28858008       3.88587264       8.73710296       0.00000000      -0.00338419       0.04984555       0.00390646       0.03494374
C        5.00286319       3.90695360       9.90290371       0.00000000      -0.00691586       0.05766740       0.00500485       0.00594783
C        4.32909663       4.41635992      11.18311297       0.00000000      -0.00330436       0.06963329       0.00629419       0.70609695
C        5.02370277       3.86600638      12.43800056       0.00000000      -0.00299991       0.05939048       0.00535870      -0.01518074
C        4.27222138       3.74490151      13.67208118       0.00000000      -0.00317227       0.05273598       0.00590962       0.03053667
C        4.98687208       3.71386416       0.01344569       0.00000000      -0.00198840       0.03406980       0.00675031       0.03037450
C        6.40954413       3.70388934       0.01922926       0.00000000      -0.00475732       0.02778044       0.00313822       0.02392089
C        7.10275561       3.83184993       1.21043343       0.00000000      -0.00043642       0.03249853       0.00440083       0.05347357
C        6.38206647       4.11694363       2.44209088       0.00000000       0.00093875       0.03702480       0.00442864       0.26788419
C        7.13113326       4.41004796       3.71836309       0.00000000      -0.00120773       0.03781730       0.00226645       0.37475431
C        6.43111075       4.23522336       4.99887014       0.00000000       0.00416863       0.04013085       0.00502630       0.00657584
C        7.11279217       4.14340904       6.20308307       0.00000000      -0.00184404       0.04372207       0.00878773       0.03266915
C        6.47675697       3.96197716       7.45741630       0.00000000      -0.00138310       0.04702921       0.00675328       0.04601505
C        7.13580662       4.03198239       8.68774853       0.00000000      -0.00164964       0.05425897       0.00864300       0.01380446
C        6.41820510       3.97587513       9.89257007       0.00000000      -0.00280881       0.05737456       0.00861464      -0.00203070
C        7.12631552       4.31408700      11.19393198       0.00000000      -0.00425625       0.05311897       0.00736968       0.47395810
C        6.38863403       3.83876294      12.43490782       0.00000000      -0.00532074       0.04542884       0.00648042       0.01986768
C        7.14178915       3.70980540      13.65317669       0.00000000      -0.00310255       0.03312356       0.00458276       0.03199759
C        8.55194962       4.01163663       1.25415725       0.00000000      -0.00646801       0.03782712       0.00331652       0.25522727
C        9.31751236       3.88658627       2.50442545       0.00000000      -0.00135135       0.04830556       0.00549563       0.04839204
C        8.62404154       4.35401320       3.70050670       0.00000000      -0.00437275       0.04569256       0.00226453       0.30846101
C        9.33951051       4.53932577       4.98834609       0.00000000      -0.00396296       0.05929631       0.00559241       0.31497651
C        8.49924817       4.79657381       6.25260088       0.00000000      -0.00309444       0.04935559       0.01139165       0.46338221
C        9.45188586       4.73346268       7.51548145       0.00000000      -0.00381009       0.07332916       0.00715272       0.51146078
C        8.51762288       4.68961646       8.81620877       0.00000000      -0.00676806       0.05733832       0.00957918       0.54683536
C        9.28876055       4.11282885       9.99534256       0.00000000      -0.00496263       0.06093272       0.00802594      -0.00883472
C        8.60461374       3.94566126      11.13284333       0.00000000      -0.00221107       0.05496495       0.00151347      -0.00724886
C        9.27591382       4.03236104      12.43475497       0.00000000      -0.00442348       0.05613026       0.00386555       0.32866421
C        8.51381837       3.79261436      13.65189850       0.00000000      -0.00189210       0.03877902       0.00168359       0.03238825
C        9.29169273       4.00894741      14.88277144       0.00000000      -0.00493897       0.04786340       0.00617892       0.34293482
C       10.75627847       3.74140125       0.01212757       0.00000000      -0.00450849       0.04778655       0.00051944       0.03110365
C       11.40222000       3.78269306       1.25891528       0.00000000      -0.00431706       0.04874680       0.00252720       0.02587133
C       10.69552767       3.86793168       2.47807533       0.00000000      -0.00063512       0.04833326       0.00409467       0.01847627
C       11.48158851       4.30563255       3.72401412       0.00000000      -0.00450549       0.04404074       0.00870711       0.36429778
C       10.74786333       4.11535361       5.03009650       0.00000000      -0.00757083       0.05235606       0.01029932       0.01797730
C       11.40220734       3.82678691       6.20662708       0.00000000      -0.01237485       0.03797433       0.01098059       0.03799929
C       10.72090990       3.88507971       7.48409002       0.00000000      -0.00813880       0.04833208       0.01333534      -0.00193091
C       11.43567360       3.79399991       8.66820770       0.00000000      -0.00747644       0.04831739       0.00503886       0.00872884
C       10.79314052       4.30811886       9.94979761       0.00000000       0.00365871       0.06827931       0.00174346       0.47073856
C       11.48907952       3.85613477      11.20035707       0.00000000      -0.00626060       0.06154113       0.00491451       0.04179428
C       10.77572800       3.97947995      12.46208255       0.00000000      -0.00240324       0.06045223       0.00224262       0.27840307
C       11.46130307       3.68422689      13.72571388       0.00000000      -0.00867660       0.05301309       0.00755043       0.03793247
C       12.85545502       4.14643891       1.25164381       0.00000000      -0.00983755       0.04373721       0.00480200       0.35572180
C        0.71581851       3.81065784       2.52596903       0.00000000      -0.00535632       0.05584541       0.00009657      -0.00647788
C        0.03094326       3.83247533       3.73343031       0.00000000      -0.00695820       0.05121261       0.00634012       0.02112629
C        0.69584921       3.76286041       4.97621659       0.00000000      -0.00380955       0.02600307       0.00231507       0.02026509
C       12.85071672       3.74323465       6.21137858       0.00000000      -0.00627240       0.02104208       0.00164388       0.02021928
C        0.63996105       3.77147513       7.43662087       0.00000000      -0.00278029       0.01950156       0.01070928       0.03106093
C       12.84871817       3.70710796       8.68000026       0.00000000      -0.00092699       0.02615985       0.00870400       0.02386313
C        0.70721362       3.71155008       9.93082644       0.00000000      -0.00330311       0.04349145       0.01143942       0.02704559
C       12.85646439       3.67925644      11.20738212       0.00000000      -0.00178943       0.04970522       0.00802512       0.02147710
C        0.67211552       3.63404203      12.44691452       0.00000000      -0.00444120       0.05271550       0.00581204       0.04082152
C        0.01035936       3.63540984      13.70796275       0.00000000      -0.00355080       0.04963948       0.00309596       0.02910163
C        0.70302556       3.79814884      14.90075677       0.00000000      -0.00048573       0.06045750       0.00821252       0.00313134
C        0.65703155       0.74876441      -0.06077577       0.00000000      -0.03498090       0.00487189       0.01313057       0.00251172
C        1.37451338       0.74930678       1.18448277       0.00000000      -0.03814042       0.00956692       0.00089165       0.00266740
C        0.66005755       0.76328952       2.42593453       0.00000000      -0.02921396       0.00726815       0.00407031       0.00123805
C        1.37330004       0.74328762       3.66798994       0.00000000      -0.04060464       0.00580094      -0.00990096      -0.00024580
C        0.66015181       0.75648996       4.90857983       0.00000000      -0.02321399       0.00597859       0.01846886       0.00285202
C        1.37357333       0.74889832       6.14914034       0.00000000      -0.04257588      -0.00156311       0.01982412       0.00135110
C        0.65803231       0.74489727       7.39430084       0.00000000      -0.00939406       0.01351252      -0.01649786       0.00190071
C        1.37198277       0.74086435       8.63475892       0.00000000      -0.05583038       0.00711548      -0.01017630       0.00409958
C        0.65843726       0.72792728       9.87741810       0.00000000      -0.01992068       0.02266205       0.00361310       0.00721777
C        1.37167561       0.73280342      11.11664872       0.00000000      -0.02351374       0.01237723      -0.00503289       0.00542979
C        0.65630752       0.72785129      12.36117513       0.00000000      -0.02486170       0.01785300       0.00061344       0.00327619
C        1.37102140       0.73868121      13.60187031       0.00000000      -0.01392093       0.00765120      -0.00487979       0.00579089
C        2.80581171       0.74106379       1.18431289       0.00000000      -0.01527404       0.00018574       0.01495967       0.00025532
C        3.52049388       0.73415403       2.42581968       0.00000000       0.00345615       0.01586327       0.00549640       0.00113562
C        2.80743134       0.74182795       3.66715111       0.00000000      -0.00976933       0.00299191       0.00976277       0.00308388
C        3.51811157       0.76942535       4.90649392       0.00000000       0.00663216       0.00510127      -0.00789214       0.00505679
C        2.80587019       0.76902178       6.14784177       0.00000000      -0.02706584      -0.00301098       0.01485877       0.00486034
C        3.52120081       0.78828178       7.39341718       0.00000000       0.00221896       0.00153394      -0.01359243       0.00576510
C        2.80708772       0.77431773       8.63540037       0.00000000      -0.00117799       0.00014934      -0.00413777       0.00729750
C        3.51997752       0.78381199       9.87475877       0.00000000      -0.00632564       0.00401929       0.00348538       0.00996328
C        2.80401352       0.76429822      11.11817126       0.00000000      -0.02686900       0.00915233       0.01514575       0.00792454
C        3.51944372       0.76554104      12.36102670       0.00000000      -0.00929858       0.00460098      -0.01597690       0.00855434
C        2.80570595       0.75295139      13.60229296       0.00000000      -0.02584070       0.00358224       0.00926753       0.00452973
C        3.52102619       0.73659351      -0.05872138       0.00000000      -0.00453852       0.01483138      -0.00656387       0.00310477
C        4.95043085       0.73146687      -0.05963674       0.00000000      -0.00658082       0.00756897      -0.01721164       0.00099555
C        5.66570396       0.74233698       1.18258723       0.00000000      -0.00402997       0.01205556       0.00910588       0.00187444
C        4.95141592       0.75675455       2.42351216       0.00000000      -0.01671556       0.00832655       0.00115597       0.00429625
C        5.66509124       0.80508322       3.66612794       0.00000000      -0.00410698       0.00408830       0.00745599       0.00728313
C        4.95445654       0.80809508       4.90537327       0.00000000      -0.01431297      -0.01035169       0.00550474       0.00778791
C        5.66947803       0.83409249       6.15002060       0.00000000       0.00050619      -0.00520909       0.02249454       0.00596519
C        4.95423361       0.81554910       7.39477815       0.00000000      -0.00580914      -0.01215757      -0.01878982       0.00727935
C        5.66820375       0.81286132       8.63388618       0.00000000      -0.02025044       0.00335722       0.00547017       0.00822147
C        4.95270267       0.79920796       9.87704333       0.00000000       0.00570487      -0.00682162      -0.01149516       0.00804970
C        5.66496689       0.78604399      11.11650424       0.00000000       0.01504643       0.00245577       0.00301692       0.00631555
C        4.95042363       0.76759682      12.36156896       0.00000000       0.00072215      -0.00052593      -0.00482249       0.00559062
C        5.66439333       0.73941880      13.60207031       0.00000000       0.00242550       0.02111121       0.00479091       0.00124769
C        7.09577287       0.77589918       1.18058222       0.00000000       0.00714933       0.00394723       0.00933853       0.00397836
C        7.81203830       0.82408530       2.42275141       0.00000000       0.00790418      -0.00127165      -0.00078209       0.00561530
C        7.09936113       0.84306445       3.66549375       0.00000000       0.00312749      -0.00329383       0.00244232       0.00744795
C        7.81267285       0.87159683       4.90652701       0.00000000      -0.00184971       0.00030278       0.00952337       0.00824409
C        7.09772394       0.86190770       6.15136309       0.00000000      -0.00249344      -0.00273291       0.02616268       0.01041096
C        7.81043005       0.85103867       7.39258175       0.00000000      -0.00459759      -0.00922765      -0.01776233       0.00684641
C        7.09785385       0.82706655       8.63391520       0.00000000       0.02052578       0.00006996       0.00026666       0.00874052
C        7.81232077       0.80941638       9.87717029       0.00000000      -0.02084497       0.00067417      -0.02073817       0.00973613
C        7.09922722       0.78909568      11.11649880       0.00000000      -0.02370829       0.00794697       0.01116090       0.00765385
C        7.81271659       0.76613707      12.35983761       0.00000000      -0.00718051      -0.00094686      -0.00684094       0.00894873
C        7.09735459       0.74822209      13.60294850       0.00000000      -0.00060705       0.01326311       0.01073272       0.00638974
C        7.80909878       0.75879864      -0.06200029       0.00000000       0.00422429       0.00930015      -0.01029220       0.00379261
C        9.24497922       0.76860627      -0.06097996       0.00000000      -0.01387521       0.01173792      -0.00450922       0.00575133
C        9.96026789       0.79900788       1.18268947       0.00000000       0.00651591       0.00605593       0.01288227       0.00527694
C        9.24603992       0.83814056       2.42382341       0.00000000      -0.01802232       0.00004097      -0.00474644       0.00756080
C        9.95810950       0.85446960       3.66427117       0.00000000       0.01326958       0.00464230       0.00806812       0.00884859
C        9.24503983       0.87150072       4.90738916       0.00000000      -0.00301930       0.00390296      -0.00429575       0.00934506
C        9.95968153       0.84810034       6.15079919       0.00000000       0.01521589       0.00276816       0.02381171       0.00920447
C        9.24707516       0.84369779       7.39218370       0.00000000      -0.00606495      -0.00397543      -0.01631619       0.00985902
C        9.96012556       0.80667425       8.63394037       0.00000000       0.00071514      -0.00082568       0.00328084       0.01105872
C        9.24513966       0.80036620       9.87727954       0.00000000       0.01229790       0.00213327       0.00254513       0.01159237
C        9.95652729       0.77094399      11.11690157       0.00000000       0.02489048       0.01124262       0.00092079       0.00967980
C        9.24189708       0.76464466      12.35981504       0.00000000       0.00768802       0.00727088       0.00798195       0.00898373
C        9.95739483       0.75071402      13.60390810       0.00000000       0.01395223       0.01402200      -0.01015784       0.00651892
C       11.38904389       0.78479063       1.18303207       0.00000000       0.04286399       0.00549390       0.02387705       0.00584299
C       12.10498758       0.79123023       2.42418874       0.00000000       0.01984495       0.01789530       0.00026107       0.00402636
C       11.39105728       0.81839101       3.66624538       0.00000000       0.03747063       0.00320282      -0.00409539       0.00612740
C       12.10547951       0.79042193       4.90953140       0.00000000       0.01582492       0.01294654       0.02014416       0.00128654
C       11.39207341       0.80327709       6.15157082       0.00000000       0.04001704      -0.00503751       0.01135226       0.00812131
C       12.10507364       0.76137920       7.39331585       0.00000000       0.00286687       0.01449321      -0.01985900       0.00549702
C       11.39100856       0.76713005       8.63351592       0.00000000       0.04462504       0.00829904      -0.00924795       0.00603653
C       12.10589847       0.73536947       9.87696306       0.00000000       0.01480943       0.02590378       0.00402264       0.00492268
C       11.39226352       0.74213398      11.11745550       0.00000000       0.01649520       0.01579971      -0.00024955       0.00404536
C       12.10700190       0.72260617      12.36082363       0.00000000       0.01641682       0.02474798      -0.00305555       0.00444144
C       11.39261097       0.73657678      13.60424176       0.00000000       0.01831014       0.01267673       0.00791303       0.00406861
C       12.10493942       0.74862868      -0.06076282       0.00000000       0.02848959       0.01543016      -0.01730059       0.00435453
C        0.74615782      56.71669058      13.42056567       0.00000000       0.00344885      -0.06800315      -0.00190466       0.38595408
C        1.44526235      57.09498968      12.15692555       0.00000000       0.00142045      -0.05445095       0.00028097       0.00435896
C        0.72761957      57.12372995      10.94716641       0.00000000       0.00152500      -0.06224512       0.00097821       0.02212734
C        1.44056260      57.08867679       9.71463513       0.00000000       0.00234795      -0.05339295       0.00182754       0.02834117
C        0.72400021      57.05499379       8.45945883       0.00000000       0.00056392      -0.04500599       0.00314639       0.02122234
C        1.39299188      56.86330813       7.26894489       0.00000000       0.00505382      -0.04795677      -0.00357256       0.03885374
C        0.65580633      56.77733059       6.01328291       0.00000000       0.00013688      -0.04385020       0.00143157       0.31173965
C        1.41790172      56.76999618       4.72205027       0.00000000       0.00495171      -0.05221471       0.00047530       0.32596296
C        0.65722610      57.02885602       3.49555457       0.00000000       0.00035745      -0.06076866      -0.00444175       0.04088148
C        1.38017361      56.72192888       2.25608296       0.00000000       0.00530030      -0.07874096      -0.00432925       0.32663321
C        0.68922519      56.94590999       0.97616689       0.00000000      -0.00174420      -0.07620335      -0.00050840       0.25547460
C        1.48424253      57.07034083      14.65951908       0.00000000       0.00187143      -0.07412028      -0.00085396       0.03686509
C        2.84828335      57.13499496      12.18628832       0.00000000       0.00156310      -0.04728785       0.00052725       0.02088679
C        3.53451897      57.02108897      10.94646536       0.00000000       0.00480988      -0.05239610      -0.00021460       0.03058672
C        2.83841572      56.94962246       9.74898736       0.00000000       0.00281400      -0.05103745       0.00274305       0.01733015
C        3.52925781      56.33092791       8.55808133       0.00000000       0.00378578      -0.04553169      -0.00061797       0.42484161
C        2.82369877      56.53640442       7.22125832       0.00000000      -0.00038626      -0.05558299       0.00181235       0.29450595
C        3.60346154      56.73013497       5.95818642       0.00000000       0.00143350      -0.03921780      -0.00218074       0.27858835
C        2.87967382      56.95985416       4.70766834       0.00000000       0.00082873      -0.05260235      -0.00395366       0.03396689
C        3.59655455      56.95633934       3.54291149       0.00000000      -0.00113744      -0.06858649      -0.00394354       0.00979620
C        2.91755473      56.49690199       2.25239302       0.00000000       0.00300503      -0.08873980      -0.00370746       0.69705188
C        3.61447487      57.03619430       0.99899687       0.00000000       0.00154776      -0.07588375       0.00053757      -0.01872524
C        2.86117727      57.13772651      14.66681356       0.00000000       0.00116071      -0.06462861      -0.00065723       0.03247149
C        3.57464349      57.15583755      13.42203730       0.00000000       0.00474544      -0.04819187      -0.00168255       0.03311197
C        4.99793812      57.15896262      13.41717808       0.00000000       0.00086063      -0.04028252       0.00098070       0.02502795
C        5.68876883      57.00554477      12.22880960       0.00000000       0.00375081      -0.04393332      -0.00006096       0.04787827
C        4.96844182      56.70939095      10.99797011       0.00000000       0.00242963      -0.04965463      -0.00115738       0.28052589
C        5.71882294      56.38764344       9.72764520       0.00000000       0.00115506      -0.04818597      -0.00094508       0.39144182
C        5.02355637      56.56555161       8.44228563       0.00000000       0.00331481      -0.05249466      -0.00293737       0.00170540
C        5.70790920      56.63186855       7.23822801       0.00000000       0.00234153      -0.04475640      -0.00024350       0.03369948
C        5.06767777      56.83014220       5.98711995       0.00000000       0.00328427      -0.04118557       0.00082991       0.04366303
C        5.72843659      56.78380986       4.75811081       0.00000000       0.00441634      -0.05736488      -0.00009826       0.01418269
C        5.01110469      56.87301261       3.55258596       0.00000000       0.00207747      -0.06067414      -0.00077456      -0.00339256
C        5.71390968      56.55405041       2.24446219       0.00000000       0.00181567      -0.06328977       0.00134165       0.49093926
C        4.98034895      57.04482972       1.00406299       0.00000000      -0.00165058      -0.05979153      -0.00007482       0.02301832
C        5.73014482      57.15975952      14.68643994       0.00000000       0.00238784      -0.04669030      -0.00041517       0.03516892
C        7.13921819      56.82000828      12.18777434       0.00000000      -0.00077587      -0.05071592       0.00212292       0.27245218
C        7.90524446      56.93000452      10.93453003       0.00000000       0.00365282      -0.05382307       0.00085554       0.04154585
C        7.21373187      56.43669471       9.74668296       0.00000000       0.00062315      -0.05262013       0.00351926       0.31120056
C        7.93309184      56.25140822       8.46037643       0.00000000       0.00253386      -0.05372243       0.00150934       0.29512179
C        7.09055044      55.96457846       7.19747683       0.00000000      -0.00365970      -0.05732757       0.00244146       0.48829508
C        8.04782617      56.04054792       5.92964771       0.00000000      -0.00840773      -0.06755946       0.00210356       0.51030558
C        7.11377774      56.11676302       4.62133429       0.00000000      -0.00423786      -0.07456138       0.00101924       0.60314989
C        7.87875871      56.73329128       3.44672425       0.00000000      -0.00126663      -0.07509253       0.00037290      -0.01326116
C        7.19265876      56.91519487       2.31114789       0.00000000       0.00381440      -0.06551376       0.00406682      -0.00788279
C        7.86245849      56.83061901       1.00706826       0.00000000       0.00073622      -0.06306772      -0.00077689       0.33259007
C        7.10177213      57.06734664      14.69006920       0.00000000       0.00195039      -0.05159011       0.00015028       0.02927458
C        7.88007558      56.84325766      13.46022381       0.00000000       0.00346538      -0.05733348      -0.00139422       0.33868557
C        9.34484199      57.10485990      13.42477426       0.00000000       0.00359589      -0.05785885       0.00600057       0.02875680
C        9.99253956      57.04791992      12.17976300       0.00000000       0.00220157      -0.05740812       0.00288884       0.03086452
C        9.28328572      56.96473781      10.95987094       0.00000000       0.00267560      -0.04989009       0.00010606       0.01346194
C       10.07244813      56.53526750       9.71710140       0.00000000       0.00012488      -0.05139316      -0.00288897       0.35591397
C        9.33355128      56.70441328       8.41293677       0.00000000      -0.00220420      -0.04790666      -0.00279649       0.01916376
C        9.98304531      57.00126393       7.23433174       0.00000000      -0.00527072      -0.04561231      -0.00458543       0.04259102
C        9.30294533      56.92075824       5.95857025       0.00000000      -0.00027751      -0.05208750      -0.00751506       0.00169023
C       10.01589926      57.03665958       4.77348804       0.00000000      -0.00027435      -0.06126259      -0.00430835       0.00836355
C        9.37909487      56.52631973       3.48569508       0.00000000       0.00645525      -0.07838826       0.00249695       0.48157728
C       10.07675694      56.99261000       2.23927668       0.00000000       0.00153940      -0.07213869       0.00037528       0.04204590
C        9.36274957      56.87716404       0.97525216       0.00000000       0.00487374      -0.07178752       0.00483706       0.29208261
C       10.04902050      57.17172854      14.61415588       0.00000000       0.00008280      -0.06289572      -0.00174110       0.03680741
C       11.44472437      56.68164662      12.18519769       0.00000000      -0.00082392      -0.05758469      -0.00406693       0.35479429
C       12.18491883      57.02697271      10.91343935       0.00000000       0.00041707      -0.05997195       0.00079919      -0.00628100
C       11.49853269      57.00849711       9.70569001       0.00000000      -0.00277475      -0.05283873      -0.00374989       0.02200771
C       12.16118845      57.09225834       8.46265485       0.00000000       0.00151820      -0.03930109       0.00028131       0.02184170
C       11.43025679      57.11559188       7.22960018       0.00000000      -0.00098604      -0.03409854       0.00156390       0.02220988
C       12.10134845      57.10357597       6.00417652       0.00000000       0.00092685      -0.03709695      -0.00380949       0.03234943
C       11.42825626      57.15565227       4.75997347       0.00000000       0.00301872      -0.04381390      -0.00387773       0.02700942
C       12.17088383      57.16289559       3.51035230       0.00000000       0.00502393      -0.06329840      -0.00387000       0.03089267