1128
Lattice="12.760116815280362 0.0 0.0 0.0 57.432476511098535 0.0 0.0 0.0 14.716774346227298" Properties=species:S:1:pos:R:3:momenta:R:3:forces:R:3:charge:R:1 energy=-5683.311944303813 stress="0.030664587910363673 -0.0006487510690807167 -0.0010694691881692202 -0.0006487510690807167 0.0011839677931746488 0.0003762907300262291 -0.0010694691881692202 0.0003762907300262291 0.024195682516799162" pbc="T T T"
C        0.73864279       0.62298092       0.03414247       0.18359737      -0.61710905       0.36272618      -1.40118727      -0.15677806      -0.93779997       0.00000000
C        1.44576348       0.63357223       1.23841031       0.25524161       0.35582340       0.37748340       0.19467773       0.19957658       1.62513505       0.00000000
C        0.72558002       0.61526977       2.49126614      -0.14796540      -0.51140465       0.69275264       0.91311738      -0.10362727      -0.93180152       0.00000000
C        1.44760365       0.56413183       3.71142506       0.20658558      -0.40086414       0.48650936      -0.72916636       0.15037861       0.81116547       0.00000000
C        0.70981496       0.61865249       4.95842853       0.01110503      -0.62133609       0.43160961       0.13487015      -0.30409328      -2.52282935       0.00000000
C        1.41431046       0.60836478       6.15244868       0.29212953       0.36471625      -0.14817369       0.35135586       0.39856918       1.06629532       0.00000000
C        0.65164285       0.74149646       7.34814635      -0.66004287      -0.39324938       0.01098054       3.86910435      -0.54273699       1.18074752       0.00000000
C        1.39790362       0.71524972       8.58861584      -0.09693343       0.38904217       0.29188937      -0.14929298      -0.03503939      -0.10037269       0.00000000
C        0.68727730       0.62867961       9.82319680       0.37553995      -0.00173425       0.44724446       0.42929314       0.14777402       0.67006772       0.00000000
C        1.38900973       0.64873394      11.08273215       0.01956273       0.15983161       0.34612206       0.70971115       0.09239296      -0.89145916       0.00000000
C        0.68705836       0.70159620      12.31192231       0.16493543      -1.11340342       0.46871165      -0.48569499      -0.74781827      -1.06512667       0.00000000
C        1.40896270       0.55966190      13.50020383       0.83471737       0.50029518       0.22916679       0.83950964       0.53711807       1.23006277       0.00000000
C        2.86594819       0.75234346       1.25616355       0.30360140      -0.23696784      -0.25445369       0.06115040      -0.66457854       0.61512817       0.00000000
C        3.59208845       0.65505752       2.50163368      -0.06988925      -0.10640920      -0.13898046      -1.49406489      -0.04953047      -0.77883690       0.00000000
C        2.86332440       0.56137969       3.72873291       0.04728413       0.10476595      -0.36171175       0.75132635       0.49224359      -0.08510798       0.00000000
C        3.59009062       0.64888129       4.96347762       0.06764565      -0.52273904      -0.25476553      -1.16078755      -0.37243510      -0.89298346       0.00000000
C        2.84576638       0.63249490       6.16888131       0.46129667      -0.65541665      -0.16662089      -0.47038644      -0.16348522      -0.18142187       0.00000000
C        3.54454690       0.59429992       7.38855953      -0.24078687       0.61438647       0.07569517       0.55909470       0.52255629       0.68468676       0.00000000
C        2.83865234       0.75998953       8.60788787      -0.03903382      -0.44529870      -0.05771924      -0.97575828      -0.61077144       0.31582777       0.00000000
C        3.51308018       0.74155916       9.86750788      -0.17683894      -0.19910630      -0.15983853       2.03408885      -0.56036189      -1.61402365       0.00000000
C        2.83200330       0.68200979      11.08272783       0.16820329       0.22582100       0.04257217      -1.36678646      -0.01972039       0.51432811       0.00000000
C        3.54404021       0.66402492      12.30541154       0.16980304      -0.22499883       0.46377659      -0.50291372      -0.15440026      -1.02259036       0.00000000
C        2.83549087       0.61192799      13.50566238       0.46030986       0.20663132      -0.15949961      -0.14264644       0.28257912       1.25041814       0.00000000
C        3.57104813       0.72240469       0.02383696      -0.36436339      -0.85743727      -0.09049039      -0.49603436      -0.82305826      -0.39012607       0.00000000
C        4.98388981       0.56305059       0.01502912      -0.37090845       0.30258192       0.21460962      -0.72349796       0.42927541       1.33333513       0.00000000
C        5.68940726       0.56574537       1.25566361       0.39346344      -0.54787714       0.21557097       0.37603279      -0.01971517      -1.11540006       0.00000000
C        4.99148634       0.63344636       2.46523763      -0.38591155      -0.38076976      -0.23662352       0.18799522      -0.15380867       1.15437581       0.00000000
C        5.69247175       0.65140017       3.70233394      -0.13165059      -0.00270531       0.10999419      -0.29119248      -0.02447761      -0.31284486       0.00000000
C        4.99895230       0.67766394       4.93584376      -0.12816347      -0.21231503       0.33527629      -0.25539275      -0.26279262       0.31696474       0.00000000
C        5.68385762       0.65488149       6.17616228      -0.02488357       0.41765169       0.06324549      -0.52530581       0.15779646      -0.36479033       0.00000000
C        4.96930513       0.63269288       7.40540029       0.31347209      -0.43972466       0.47170286      -0.32630577      -0.10126103      -1.02416437       0.00000000
C        5.69289600       0.65310765       8.60231487       0.36426923      -0.45599420       0.22653090      -1.05371463      -0.29263086       1.35426002       0.00000000
C        4.97489048       0.61931573       9.84484289       0.31121809       0.15456918       0.46350998      -1.70997328       0.37593570      -1.21615149       0.00000000
C        5.66240252       0.58683795      11.05328508      -0.18758056       0.14112873       0.10978698       0.97711643       0.32678858       1.21453544       0.00000000
C        4.94034659       0.66376109      12.28031082      -0.12845392      -0.72638925      -0.00098810       1.33721558      -0.55741524       0.40674996       0.00000000
C        5.65619095       0.59533426      13.51929046      -0.13029097      -0.12386410       0.57881291       1.22377125       0.12660683      -1.55602247       0.00000000
C        7.10935334       0.57520568       1.23934764       0.23905109      -0.41197695       0.09153925      -0.38626625       0.03627249      -0.21630784       0.00000000
C        7.80891894       0.61705854       2.44743465      -0.28731287      -0.37259849       0.04835062       0.77022963      -0.01746009       1.29221081       0.00000000
C        7.09682597       0.66039405       3.68245347       0.15593980       0.11039366       0.36742312       0.43732021       0.04966060      -0.63804333       0.00000000
C        7.79653269       0.74324921       4.89229680      -0.08639459       0.31238461       0.63446841       1.21352950      -0.12816213       1.96181118       0.00000000
C        7.08035361       0.75652545       6.15614530      -0.50207454      -0.25315376       0.12185099       1.34329404      -0.46911214      -0.37596196       0.00000000
C        7.79645015       0.69361943       7.38981288      -0.00314560      -0.02487407      -0.15124951      -0.09037473      -0.10356647      -0.61948035       0.00000000
C        7.09156685       0.66941130       8.61471354      -0.09832083       0.31723377      -0.26833418       0.73936985       0.13485359      -0.04177527       0.00000000
C        7.80949228       0.72120618       9.83744486       0.09545339      -0.14682672       0.01115083      -0.37074360      -0.39171337      -0.63047549       0.00000000
C        7.09241337       0.64247358      11.03936827      -0.33280143      -0.10983675       0.25257513       0.24414730      -0.03018211       1.74879995       0.00000000
C        7.83791117       0.64132175      12.29159127      -0.20234561      -0.41098827       0.12267434      -2.29267898      -0.21392592      -1.02792265       0.00000000
C        7.08554086       0.64616299      13.49765337      -0.06031568      -0.50294024       0.02772114       0.89516775      -0.33729023       1.12907348       0.00000000
C        7.83812808       0.60684760       0.03445482      -0.24814057       0.12404024       0.27927518      -1.58433694       0.18866198      -1.39604332       0.00000000
C        9.24067959       0.69752519       0.02035288      -0.13641583      -0.49741263      -0.53100559      -0.20946709      -0.44722034       0.87998411       0.00000000
C        9.94725480       0.65310600       1.24495001       0.39680560       0.04383401       0.39569193      -0.16038303       0.02905730       0.14276526       0.00000000
C        9.24136387       0.64209708       2.47330003      -0.26265537      -0.17628195       0.63141227      -1.40006662      -0.05966629      -1.62482422       0.00000000
C        9.94589062       0.66471609       3.65323353       0.14545736       0.06009893       0.11968309       0.84152868       0.08528627       3.42925826       0.00000000
C        9.25882645       0.75617062       4.93249617       0.24247069      -0.15375866       0.34233504      -2.15938889      -0.52320401      -2.24414642       0.00000000
C        9.92252915       0.68884144       6.15685151       0.19861997       0.04485902       0.41342623       0.93976244      -0.12381085      -0.10279515       0.00000000
C        9.20685263       0.64706974       7.36683570       0.30936080       0.23547032       0.07360692       0.43312383       0.24702547       1.17366568       0.00000000
C        9.92677857       0.68192367       8.61633980      -0.25088416      -0.23941110       0.41082686      -1.51156154      -0.18747687      -1.34939798       0.00000000
C        9.21466673       0.72537833       9.83332069      -0.11419037      -0.36378483      -0.33707859       0.73312430      -0.58399463       0.45775367       0.00000000
C        9.95364224       0.58884183      11.04786509      -0.10129838      -0.08179875      -0.21293807      -2.44790290       0.29441553       1.10186916       0.00000000
C        9.23149210       0.59128259      12.30795400      -0.39413656      -0.02975836       0.26964990       0.98528039       0.21629210      -1.35488397       0.00000000
C        9.92835603       0.66096450      13.52934512       0.35092681      -0.25305186      -0.29945100       1.07101792      -0.20336521      -0.71325783       0.00000000
C       11.35780196       0.65174907       1.26302057       0.50285372      -0.11512536      -0.51535733       0.12874123      -0.10759864      -0.63335046       0.00000000
C       12.07837487       0.63109559       2.46944129      -0.30565235      -0.23217365      -0.44721498      -0.28587089      -0.08975832       0.96312420       0.00000000
C       11.36879356       0.63554336       3.71153287      -0.00182668      -0.10889744       0.32490572      -0.75419938      -0.01857326      -2.28865240       0.00000000
C       12.04924029       0.63474142       4.91310318       0.28826194      -0.27767418       0.06588841       1.08882280      -0.14827371       1.08386055       0.00000000
C       11.34419479       0.68444278       6.12722517       0.59295981      -0.04074110      -0.04295100      -0.55830638      -0.18359371       1.06858854       0.00000000
C       12.04684927       0.69469225       7.36276646       0.12794657       0.00923663       0.26425232      -2.38342203      -0.26800966       0.01186107       0.00000000
C       11.31295496       0.61362194       8.58172372      -0.37934453       0.23550340      -0.29332858       1.83772041       0.24715409       1.05209712       0.00000000
C       12.02942117       0.60277493       9.84414355       0.38166841      -0.74475121       0.15922748      -0.01058859      -0.19014152      -1.23348253       0.00000000
C       11.33507861       0.56248152      11.07417917      -0.12217449      -0.23036419       0.02249470       0.95586755       0.23055218      -0.76137507       0.00000000
C       12.02401349       0.63708412      12.28928196      -0.44385943      -0.06994786      -0.06133641       1.21618301      -0.06271288       0.32915209       0.00000000
C       11.35262141       0.63670403      13.51786217       0.54227186       0.09988908       0.32562009      -0.86983218       0.08443871       0.46831677       0.00000000
C       12.05715660       0.64972676       0.02793976       0.17168204      -0.43689090       0.17676297       0.90525042      -0.28162610       0.21108722       0.00000000
C        2.11895490      50.67914985      14.69802077       0.21673259      -0.11099612       0.16617377      -0.67220187       0.41189166      -1.34245186      -0.00000000
C        2.81606520      50.74049972       1.19239586      -0.98593258      -0.58492755       0.46651993       0.97085218      -0.00148249       1.17708750      -0.00000000
C        2.10104699      50.67597728       2.43524847       0.04650872      -0.19401208       0.57189786       1.65011422       0.39514972       0.35394182      -0.00000000
C        2.82231864      50.81680904       3.67619932       0.80173490      -0.25559371       0.10345610      -0.78400307      -0.37996712      -0.37956829      -0.00000000
C        2.09863824      50.78988488       4.90592314      -0.34873960      -0.31575146      -0.10216747       0.55282033      -0.24065442      -0.01016167      -0.00000000
C        2.82761847      50.73690423       6.12915145      -0.55424625      -0.68493435      -0.44823279      -2.10453747      -0.07649109       0.65431563      -0.00000000
C        2.10231145      50.70433129       7.38207012       0.25521058       0.25012902       0.04347468       1.36096332       0.54746782      -0.86393238      -0.00000000
C        2.86325129      50.83908827       8.59710773      -0.27444286      -0.52324050      -0.24870060      -2.78814960      -0.53390732       0.08900160      -0.00000000
C        2.11158940      50.79904635       9.81740660       0.47974173      -0.28683102      -0.60885831      -0.25244953      -0.14654798      -0.65400791      -0.00000000
C        2.80876494      50.77342154      11.02712017      -0.37840961       0.29031163      -0.02485463       1.68316059       0.21597239       0.62096460      -0.00000000
C        2.12804836      50.83689626      12.25909436       0.23426532      -0.43761203       0.06664261      -1.40837651      -0.35954504      -0.14326664      -0.00000000
C        2.83551567      50.76412714      13.47138179       0.32440144      -0.22933342      -0.02044599      -0.42226852      -0.06037039       0.33739333      -0.00000000
C        4.26261480      50.86716396       1.19655919      -0.42952438      -0.24546616      -0.72605359      -2.04304991      -0.50093220       1.07003788      -0.00000000
C        4.93320108      50.81168251       2.43891360      -0.26372289       0.44997914      -0.14587477       0.58411033       0.25600188       0.47545996      -0.00000000
C        4.23433226      50.84883302       3.68234718       0.26660860       0.06072806       0.15215720       0.28258178      -0.14732515      -0.43652993      -0.00000000
C        4.95943349      50.83686046       4.90506510      -0.11600381      -0.32380746      -0.79460414      -1.73510729      -0.43251532       0.82681807      -0.00000000
C        4.21025366      50.69280586       6.14927869      -0.34801039       0.43608668      -0.53296264       2.82424819       0.72170433      -0.51002882      -0.00000000
C        4.95332661      50.76757145       7.37888303       0.74283484      -0.76941854      -0.10849430      -0.60176458      -0.24411518       0.29847400      -0.00000000
C        4.25175108      50.83078031       8.62545048      -0.58673421       0.29541300       0.03970196       1.00746336      -0.10811058      -1.16861948      -0.00000000
C        4.96736695      50.83880076       9.83874924      -0.01477398       0.18220166       0.36216270       0.12513893      -0.04456733      -1.38005172      -0.00000000
C        4.24988834      50.79355598      11.01922375      -0.44994601      -0.09180435       0.14266686      -0.88051085      -0.02984044       1.51899474      -0.00000000
C        4.97658103      50.77283545      12.24239965      -0.35205728      -0.19432213       0.28733473      -1.51029627       0.06997932       0.16322933      -0.00000000
C        4.23813437      50.80320175      13.45491419      -0.06998122       0.08283295       0.73072385       1.17785792       0.11030317       0.96565525      -0.00000000
C        4.94998598      50.88681427      14.70624458       0.20577581       0.55145144       0.41253596       0.86627807      -0.01297226      -1.52638385      -0.00000000
C        6.38539724      50.95007797      14.70522346      -0.05261989       0.16995502       0.17814534      -0.61746216      -0.52225882       0.97863851      -0.00000000
C        7.09372268      50.84213355       1.24011192      -0.40084211       0.24919405       0.26155963      -0.89815277       0.03817275      -0.67828065      -0.00000000
C        6.35913538      50.80478129       2.46105044       0.04749910      -0.04871131      -0.00451244       0.01558110       0.07760621      -0.34140689      -0.00000000
C        7.06144838      50.78195303       3.68954868      -0.10093639       0.25090903      -0.49129811       0.16305860       0.25857256       0.28493282      -0.00000000
C        6.35755934      50.83430965       4.91294083       0.07250802      -0.14665234      -0.43604413       0.48943469      -0.26486586       0.42215070      -0.00000000
C        7.05677605      50.79473196       6.14950761      -0.15242660       0.06055075       0.67756381       0.25742998       0.02918619       0.41147533      -0.00000000
C        6.36797450      50.70800799       7.40516531       0.11312235      -0.04865894      -0.34271227      -0.61895415       0.37107039      -2.53435914      -0.00000000
C        7.07246371      50.72497343       8.58992839      -0.98164524      -0.01367056      -0.66660006       1.88737486       0.33321293       1.54921304      -0.00000000
C        6.37377418      50.84997067       9.82192128       0.33337286      -0.54411700       0.37633729      -0.22511357      -0.46520560      -1.52315572      -0.00000000
C        7.09087710      50.79389574      10.99557481       0.23827861       0.53235150       0.45138521       0.19990769       0.27011084       3.11514549      -0.00000000
C        6.37292604      50.78653127      12.26105673      -0.23282226       0.20696770      -0.01951269       1.10342023       0.24161072      -1.27747304      -0.00000000
C        7.07243123      50.88870414      13.48114043      -0.30699168      -0.00323363       0.19279741       1.14094027      -0.39631111      -0.22665720      -0.00000000
C        8.50533086      50.78040219       1.24360226      -0.45527464      -0.22620392       0.03553326      -0.54441382      -0.05389100      -2.26721876      -0.00000000
C        9.17286654      50.78342227       2.45396497      -0.54675249      -0.17442898      -0.02027809       1.66765316       0.03818775       1.75666386      -0.00000000
C        8.47778588      50.81608832       3.71458499      -0.48651930      -0.02763360       0.47725676       0.44365438      -0.05246609      -1.25649911      -0.00000000
C        9.21259970      50.87411630       4.92314359       0.55740547       0.20006449       0.25881460      -0.21339269      -0.19882106       0.58158194      -0.00000000
C        8.47909574      50.86257741       6.15917270       0.06176389      -0.10380742       0.20904055       0.50857599      -0.26792239      -0.39128045      -0.00000000
C        9.19561441      50.80228112       7.38473586       0.00583533       0.17246768      -0.48226498       1.73739751       0.16665923      -1.26079364      -0.00000000
C        8.53478105      50.75005005       8.59988810      -0.17555103      -0.18435267      -0.72885682      -2.80626915       0.03876121       0.18902688      -0.00000000
C        9.20721245      50.77895229       9.81854191       0.19459758      -0.41468693       0.69775055       1.33728854      -0.22785503       0.12695205      -0.00000000
C        8.50323988      50.84927990      11.02950251      -0.67324165      -0.28100258       0.29719636       0.17656484      -0.36017264       0.78285504      -0.00000000
C        9.22258777      50.83317879      12.27112745       0.39767363       0.15962736      -0.35364312      -1.06892007      -0.02016168      -0.63455026      -0.00000000
C        8.50197335      50.79565970      13.48665711       0.24545530       0.09793937      -0.26207424      -1.16677320       0.24587977      -0.84564917      -0.00000000
C        9.20204043      50.73866498      14.68370718      -0.05365861       0.43520105      -0.02762740      -1.10858974       0.48458992       2.68240328      -0.00000000
C       10.57903070      50.88693882      14.70659776      -0.27073243      -0.21732135       0.46293360       2.54950337      -0.34044609       0.28623121      -0.00000000
C       11.34240248      50.87863427       1.20721783       0.13107598      -0.10392486       0.10246694      -1.33316925      -0.48620951       0.71513431      -0.00000000
C       10.61416269      50.78872032       2.45748442      -0.10087582       0.52739464       0.16760155       0.11978444       0.29033634      -0.03651145      -0.00000000
C       11.32548076      50.79021662       3.70637366      -1.09174177      -0.87764514       0.33009075       0.38800240      -0.47586887      -1.48698631      -0.00000000
C       10.64419555      50.86659834       4.92399511       0.61037658       0.36220207      -0.71630888      -1.56498631      -0.02131926       0.09504135      -0.00000000
C       11.33631116      50.89094828       6.14170633       0.72564510       0.17879935      -0.43745399      -0.43008692      -0.25211047      -0.13982786      -0.00000000
C       10.64261574      50.82560783       7.36005599      -0.16450644       0.12039455       0.17804224      -1.14362221      -0.03939770       0.36409960      -0.00000000
C       11.36642131      50.76477281       8.57400946      -0.22307914      -0.59617819       0.18225953      -1.80731935      -0.21518086       1.67651584      -0.00000000
C       10.63530027      50.69785776       9.83035728       0.39613689       0.34465123      -0.18917303      -0.61632759       0.60217478      -1.71218294      -0.00000000
C       11.30399619      50.79303652      11.04774483      -0.22373524      -0.23686719      -0.03721282       2.45981893       0.02714920       0.76066084      -0.00000000
C       10.62774288      50.85206913      12.28531981       0.42508295       0.07496741      -0.27614727      -0.66129375      -0.14486283      -1.09955696      -0.00000000
C       11.31154084      50.85690385      13.49549228       0.06621848       0.52603329       0.38278751      -0.33439013       0.07304724       0.18137328      -0.00000000
C       12.75813483      50.76287573       1.21065145       0.07712237      -0.66788369       0.16157915       0.04882483      -0.37447004      -0.50451273      -0.00000000
C        0.70441498      50.61397279       2.45191193       0.75342638      -0.65547932      -0.38509864      -1.40901323       0.36806410      -0.27094976      -0.00000000
C       12.73728608      50.58596305       3.69217722      -0.40344766       0.03395953       0.17333835       0.06594256       0.82295325      -0.82175544      -0.00000000
C        0.68662503      50.73252037       4.90326655      -0.16396592      -0.39133173       0.63800778       0.05545215      -0.01110233       0.30054189      -0.00000000
C       12.72693218      50.82256314       6.12057913       0.31586609      -0.36090047      -0.10099069       1.46810018      -0.38366024       0.86159196      -0.00000000
C        0.68534243      50.72289816       7.35715876      -0.28852219      -0.21814238       0.15749787       0.01154372       0.18267177       0.74649889      -0.00000000
C       12.75795980      50.71787310       8.62152593      -1.15895419      -0.42419140       0.17816149       0.42123691       0.04579251      -1.80140322      -0.00000000
C        0.68224256      50.72548291       9.84358506       0.00704555       0.21011675       0.06880353       1.66990307       0.35960945      -1.32898374      -0.00000000
C        0.00584221      50.82243703      11.04580394      -0.03212336      -0.46221077       0.30573992      -2.75948463      -0.31690870      -0.21744939      -0.00000000
C        0.68623306      50.81480132      12.24741518       0.46656155       0.51918354      -0.19413569       0.99598822       0.16849312       1.28102884      -0.00000000
C       12.70176978      50.84237648      13.45559442       0.08546106      -0.48445236      -0.54672789       1.96969875      -0.40366745       0.49446893      -0.00000000
C        0.68732386      50.70669669      14.65318812      -0.16433546       0.06349780      -0.20214099       0.09445372       0.34240485       1.88609883      -0.00000000
C       12.04578442       3.73536466      14.69950770      -0.02701531       0.39103981      -0.55385549       1.13276552       0.70422806       0.79182034       0.00000000
C        0.01167285       3.85349161       1.22929452       0.14259734      -0.00819130      -0.15240694       0.31508975      -0.22104917      -1.79528590       0.00000000
C       12.07897200       3.86584848       2.42766167       0.21783309      -0.21462567      -0.32333242      -0.89422696      -0.32843294       1.79651261       0.00000000
C        0.01892201       3.79722532       3.68233330      -0.62465875       0.19604326       0.25756317      -1.98852013       0.13923103      -0.30244340       0.00000000
C       12.03689281       3.69865199       4.90864832      -0.36011948       0.01810355      -0.17054233       0.73558816       0.60991122      -0.78488032       0.00000000
C       12.74075564       3.79019131       6.12686677       0.44780778      -0.10809465      -0.70643294       0.55408864       0.12384393       0.47771197       0.00000000
C       12.04004066       3.88906928       7.35882055       0.53283783      -0.17212193      -0.30594547      -0.40503090      -0.43162996      -0.97481914       0.00000000
C       12.72857345       3.88774917       8.57382590      -0.17754914      -0.02868380       0.21555097       0.30729560      -0.47115346       0.96607189       0.00000000
C       12.02212470       3.83755943       9.80202872      -0.47621902      -0.00183534       0.32670842       2.00184431       0.06938293       0.27633929       0.00000000
C        0.00394336       3.83353791      11.03063089      -0.05472041      -0.18138070       0.40732242      -0.94208165      -0.03866520      -0.50295176       0.00000000
C       12.04368048       3.91757963      12.24398463      -0.46696043       0.13733456       0.24099964       0.32861078      -0.25684362       1.04140598       0.00000000
C        0.02573055       3.82532672      13.48714146       0.18996182       0.16400686       0.02922453      -1.16730754       0.14355790      -0.80343721       0.00000000
C        1.42913245       3.93764567       1.22808532       0.17368658      -0.01535906       0.23248277       0.17434019      -0.33726885      -0.30579813       0.00000000
C        2.15708715       3.99338437       2.44397917       0.22575308      -0.06744120      -0.88355612      -1.58172830      -0.52973468       0.81707301       0.00000000
C        1.39478407       3.95672216       3.68569013      -0.21778975       0.15158234      -0.50763325       2.85472318      -0.15539598      -0.70635939       0.00000000
C        2.14297195       3.94209140       4.89612366       0.49554164      -0.14432420      -0.23279391      -2.16868550      -0.37442590       1.01623950       0.00000000
C        1.40221928       3.86052423       6.14014517       0.50257291      -0.00765582      -0.33977217       0.08764963       0.09832322      -1.56198408       0.00000000
C        2.11794250       3.85040536       7.33896299      -0.02537839       0.19575012      -0.33487966      -0.34522404       0.23342498       2.56660766       0.00000000
C        1.37687105       3.90845119       8.62753240      -0.08211366      -0.55137235      -0.39672148       1.30522053      -0.52637938      -2.97387877       0.00000000
C        2.12030256       3.78374025       9.80580613       0.13699420       0.28458547       0.16133839       0.98315480       0.54253960       1.43192624       0.00000000
C        1.40890418       3.77897469      11.06218145      -0.11171644       0.04539577       0.33435488       1.17941673       0.35455698      -1.06107114       0.00000000
C        2.15196953       3.85436552      12.26950497       0.28316735       0.04636517      -0.35459542       0.05085159      -0.07401579      -0.60236209       0.00000000
C        1.43856251       3.89314971      13.47608773       0.13202713      -0.57595257      -0.42433559       0.21345187      -0.48588838       1.50849525       0.00000000
C        2.15205485       3.81055489       0.01333695      -0.08646758       0.86690110       0.49359911      -0.77190104       0.52837083      -1.17114428       0.00000000
C        3.56181593       3.82543990      14.69272393      -0.55176697      -0.32916945       0.02183440       0.66209048      -0.26565227       1.76045636       0.00000000
C        4.28959749       3.83700670       1.22615535      -0.12694033       0.11684281       0.26786509      -0.25222728      -0.11794345      -0.97066563       0.00000000
C        3.56222266       3.90048883       2.43403007      -0.37509444       0.60497891       0.49213184       0.69339677       0.06786522       1.41374932       0.00000000