1128
Lattice="12.563693818791693 0.0 0.0 0.0 361.1145025474002 0.0 0.0 0.0 14.508014182111305" Properties=species:S:1:pos:R:3:momenta:R:3:forces:R:3:charge:R:1 energy=-5747.135779319401 stress="0.0004189206521263816 0.00017790514880411168 -2.3601485485490662e-05 0.00017790514880411168 0.0006293977056375879 5.167334626732226e-05 -2.3601485485490662e-05 5.167334626732226e-05 0.0007879386216352145" pbc="T T T"
C        9.00731841      55.60900309       0.77757675      -0.15902565      -0.46750010      -0.51547921      -2.24821008       0.00249911      -0.01667976       0.01000000
C        9.69405351      55.63864776       1.97476188       0.21988178       0.23887619      -1.18846952      -0.34247938       0.17719704       0.81445247       0.01000000
C        9.00151681      55.69619924       3.18926344       0.30074553       0.34879880      -0.06196278       0.85932095       0.13881367       2.26465368       0.01000000
C        9.73365834      55.57965683       4.45809982      -1.09134661       0.59442005      -0.19338839      -2.96990416       0.51015237      -3.86494552       0.01000000
C        9.01250501      55.55811209       5.61526546      -0.43396152       0.26648770       0.90612259      -1.18851461      -0.52336402      -0.24358195       0.01000000
C        9.68941639      55.43271040       6.78862152      -0.46432788      -0.07987926      -0.55380214      -0.72216681       0.01173172       2.61271659       0.01000000
C        8.93608039      55.41255552       8.00199799       0.38640397       0.46304137       0.45287552       1.97230413       0.20228870      -1.55222898       0.01000000
C        9.62645211      55.46475501       9.18861992      -0.15890935      -1.19427988       0.44975773       0.88090472      -0.42615861       1.76496448       0.01000000
C        8.93762357      55.45414131      10.42666082       0.31830756      -0.27915417       0.73792170       1.68956907       0.24586327      -0.64319729       0.01000000
C        9.67332786      55.50374043      11.60786728      -0.37530678       1.09018267      -0.42647264      -0.23044746       0.43023500       0.95287726       0.01000000
C        9.00973766      55.51865120      12.84606597       0.17066400       0.43676471       0.04157296      -2.40081631      -0.33928089      -0.07444547       0.01000000
C        9.66129572      55.62121682      14.07524387       0.81459789      -0.34993281       1.32543326       0.96688553      -0.27494178      -0.97293233       0.01000000
C       11.07698027      55.68887130       1.97998931       0.09939462      -1.16897546       0.25147417       0.73450690       0.06701085       1.32888608       0.01000000
C       11.76098107      55.69911559       3.24556317      -1.32156551       0.22813750       0.37395511       0.99580527      -0.27560446      -4.38314147       0.01000000
C       11.08332000      55.59152809       4.41775266      -0.59169504      -1.01792323      -0.12892648       1.68216644      -0.08992623       0.82988722       0.01000000
C       11.81167397      55.48076330       5.58992837       0.36834657       0.38206309      -0.56065673      -2.63620361       0.18757902       1.23549601       0.01000000
C       11.07295903      55.43468703       6.78441910       0.38385498       0.26168263       0.54493302       1.09646633      -0.17913312       0.14376051       0.01000000
C       11.77864784      55.38025704       7.98606669      -0.40352976      -0.19409487      -0.31034243      -2.28303067       0.03498370       1.09962259       0.01000000
C       11.03691627      55.42096795       9.19777259       0.27115804       0.23965823      -0.52397746       0.48112259       0.18545692      -0.07947763       0.01000000
C       11.73022880      55.51620989      10.42494634      -0.75941639       0.23131456       0.16028407       1.30897508       0.14129131      -1.21797939       0.01000000
C       11.05520589      55.69707449      11.60520216      -0.81073619      -0.35273155       0.48146111      -0.49954434      -0.81308806       2.05121111       0.01000000
C       11.73419858      55.67848891      12.86331325       0.86626057       0.12741689      -0.70857871       1.09737327       0.10176043      -1.77002880       0.01000000
C       11.05873755      55.64600011      14.06743019      -0.42319577      -0.25740044      -0.02734624      -0.25586076       0.30694815       0.33386815       0.01000000
C       11.75836006      55.74869914       0.75767314      -0.32131742       0.44124953      -0.75626509       1.98325452       0.27975128       0.60007730       0.01000000
C        0.62991296      55.90606857       0.78368841      -0.51192014       0.22018566      -0.46944078      -1.78385610      -0.30916704      -2.23320430       0.01000000
C        1.30236878      55.88067752       1.96705832       0.27330308      -0.64068987      -0.06378651       1.75414037      -0.59335478       2.21370557       0.01000000
C        0.60479373      55.65495981       3.16146803      -0.00033413      -0.16089516      -0.83103494      -0.83499193       0.49366105       0.86469313       0.01000000
C        1.29579845      55.56639740       4.36742985      -0.36340606      -0.45871816      -0.36847979      -0.56390418       0.36727782       1.53344090       0.01000000
C        0.60171872      55.57613030       5.62725308      -0.49216099      -0.32415511       0.69680299       3.43335950      -0.58483815      -0.82735356       0.01000000
C        1.35572180      55.46531482       6.85337682      -0.37856815       0.30636825      -0.25892728      -5.30577918       0.03822308      -2.03510308       0.01000000
C        0.57553677      55.35443721       8.01625206       0.79258602       0.08523030      -0.61029535       3.82056825       0.54529053       0.85787539       0.01000000
C        1.32643079      55.44797035       9.22002708      -1.81068213      -0.37474392       0.62297857      -2.32270203      -0.01575107       1.67332457       0.01000000
C        0.57324292      55.52551908      10.46986989       0.79595775       0.11884434      -0.12092278       1.27284609      -0.34686318      -2.60994682       0.01000000
C        1.30926245      55.56854668      11.65110513       0.24245847       0.78873169      -0.04072053       0.11864572       0.64094439       0.32114107       0.01000000
C        0.58930426      55.68842279      12.85278513       0.41195634       0.40291641      -1.00737541       1.46507227       0.62783011       1.71703111       0.01000000
C        1.36685422      55.92762354      14.07857525      -0.70826726      -1.00877114       1.10649187      -3.35190443      -0.91005665      -0.81078833       0.01000000
C        2.72520206      55.85474099       2.02064071      -0.37299578       0.09523666       0.42908750      -0.59860409       0.04481527      -1.47590112       0.01000000
C        3.43901789      55.77272373       3.20570526       0.19962659       0.33063404       1.37000887      -3.09165246       0.04127085       0.50424354       0.01000000
C        2.66672730      55.68120076       4.37301334      -0.33781417      -0.66268003      -0.12956628       2.35564208       0.15642881       0.93415737       0.01000000
C        3.36994397      55.71694168       5.59882985      -0.85978733      -0.58881561      -0.65809485       0.29976366      -0.74756538       0.56164867       0.01000000
C        2.68671533      55.62039901       6.83582798       1.26254736      -0.28669915      -0.20669040       3.57135604      -0.16454597      -0.09946706       0.01000000
C        3.42731053      55.48624150       8.03764079      -0.24177667       1.18225492       0.86601363      -1.33136620       0.56005256      -0.83268467       0.01000000
C        2.72425879      55.54221533       9.24677752      -0.05855593       1.03273440       0.88422337       0.03185842      -0.02330480      -0.21046685       0.01000000
C        3.43057899      55.71815596      10.44007036      -0.35722710      -0.36437890       0.88424049      -0.35378763      -0.12241423      -0.15976852       0.01000000
C        2.71929175      55.74824554      11.63440420      -0.44267234       1.60051285       0.88152437      -1.29272563      -0.45642163       0.83102780       0.01000000
C        3.40256410      55.78000272      12.85556791      -1.04401558      -0.56599175       0.19525139      -1.72947996       0.14843417       0.64029235       0.01000000
C        2.74876630      55.87719763      14.09601846      -0.22399600       0.73899060       0.15717113       0.48818054      -0.08338849      -0.28415660       0.01000000
C        3.45154699      55.85119558       0.81818688      -1.64229835      -0.37327074      -0.36698005      -2.53668373       0.29951914      -0.53660664       0.01000000
C        4.81540854      55.86348161       0.82868644       0.29436129       0.11024024       1.06817621       1.27928882      -0.94600798      -4.01464408       0.01000000
C        5.52618903      55.82541601       1.99402551      -0.13225896       0.40305526       0.61877195       0.37416458       0.23606872       2.02622413       0.01000000
C        4.79333502      55.81069873       3.22109110      -0.07543938       0.55307066      -0.22436696       3.05801173      -0.04325342      -1.80252854       0.01000000
C        5.52764938      55.75157308       4.38829106       1.61243119       0.18726798       1.01504956      -0.36063136      -0.55481213       2.26070070       0.01000000
C        4.78212071      55.57767284       5.60387201       0.34048004      -0.98639191       0.36183459       0.77789675       0.34285135      -0.79702054       0.01000000
C        5.49523900      55.36259176       6.80042605      -0.07536238      -0.21811177       0.40492984      -0.32869113       0.91312987      -0.26923192       0.01000000
C        4.80671920      55.51048624       8.00822314       0.32078345       0.15611979       0.25707442       0.68072531       0.11080321       0.52737826       0.01000000
C        5.50163608      55.76493782       9.19915359      -0.82432474      -0.00752545       0.65344996      -0.48976943      -0.56843728       1.95044463       0.01000000
C        4.82925461      55.77108137      10.46279095       0.54063955      -0.10607885      -0.02752770      -0.91516754       0.06483807      -1.86798370       0.01000000
C        5.47000175      55.73549681      11.69250474       0.56554931       0.74744200      -0.09511003       1.81345266      -0.55586959      -1.56896013       0.01000000
C        4.75303902      55.70175434      12.86058384      -0.60610325       0.10257732       0.74494290       2.03087451       0.01905132       0.42812139       0.01000000
C        5.46480876      55.62974002      14.04254306      -0.23874858       0.47921690       0.31798299       0.67002996       0.45426518       3.73597250       0.01000000
C        6.94004726      55.82834347       1.98589463       0.05912312       0.45392557      -0.90530528      -2.11775549       0.16556597       2.10743583       0.01000000
C        7.60590525      55.90526722       3.23062950      -0.39008747      -0.07504572       0.59292560       1.77790272      -1.00747239      -2.58933871       0.01000000
C        6.94326122      55.70922652       4.40632410      -1.62589390      -0.78399518       0.78450709      -2.17493500       0.04469386       1.10697202       0.01000000
C        7.62444300      55.47575867       5.60108209      -0.97850061      -0.49452474      -0.37036479      -0.77584576       0.61115209       0.52689270       0.01000000
C        6.89165201      55.44327195       6.81089509       0.08029144       0.12692824       0.07515872      -0.14063352      -0.29323158      -1.15763443       0.01000000
C        7.56843853      55.47740820       8.01470362      -0.36166461       0.62157923       0.05772355      -0.92830791       0.34880346       1.29319197       0.01000000
C        6.88644255      55.67285375       9.24982004       0.09818711      -0.48583695      -0.12941106       0.65843518      -0.60211265      -1.66361038       0.01000000
C        7.56964546      55.54239125      10.46192480       1.49001274      -0.58916699      -0.32900162      -1.36426779       0.14516071      -0.26335287       0.01000000
C        6.86796239      55.52411815      11.67357757      -0.20141650       0.69683604      -0.53603981      -0.97333119       0.37914418      -0.91498784       0.01000000
C        7.56331048      55.41299189      12.85146820      -0.47887688       0.84103531       0.19527340       2.14981981       0.39450442       1.96898573       0.01000000
C        6.87460384      55.46353721      14.09371629      -0.98052132       0.18546631      -0.21600068      -0.08601449       0.43044579      -0.93619646       0.01000000
C        7.57936584      55.62005500       0.79911230       0.31545473      -0.14437991      -0.93287679       1.89636206      -0.19955968      -1.83535922       0.01000000
C        7.52462934       4.81870871       3.17362871      -0.67034893      -0.02286533      -0.27623172      -1.14185447      -1.34028322      -1.84772942      -0.01000000
C        8.14084874       4.59577321       4.37899313       0.20034721       0.06315904       0.49138998       3.21533972       0.38820764      -0.05709586      -0.01000000
C        7.47076548       4.53518050       5.58207727      -0.72671492      -0.54824370      -0.42252056       2.85096017       0.62076467       2.23295231      -0.01000000
C        8.20910003       4.69800012       6.80427701      -0.01786229       0.22441555       0.96938773      -0.70221745       0.15003505      -0.84548401      -0.01000000
C        7.51967010       4.96652918       8.00764458       1.33049484      -0.57310454      -0.38820663      -0.26872467      -0.52356073      -0.18890821      -0.01000000
C        8.21537794       5.00126108       9.23702196      -0.90846010       1.25296223      -1.17083396       1.57691268       0.38917562      -3.25307017      -0.01000000
C        7.55098054       5.01962957      10.42913959      -0.14789915      -0.57216004      -0.49545051      -1.18891536      -0.67020912       0.57797867      -0.01000000
C        8.27503391       4.83878635      11.59754229       0.29468671      -0.40547017      -0.78099315      -0.14439404       0.62858718       0.65785257      -0.01000000
C        7.56166501       4.81581630      12.80786925      -0.09233684       0.64785514      -0.47951075      -0.65098985      -0.53085564       0.39774052      -0.01000000
C        8.27083453       4.69544758      14.02584424       0.78242198       0.59423765      -0.22275016      -3.22987765       0.45807081      -1.06847431      -0.01000000
C        7.56145722       4.76690709       0.70930691       0.53264754      -0.34774028      -0.32373829      -1.08369140      -0.89963431       1.85078401      -0.01000000
C        8.21304077       4.61807066       1.97296858       0.45907396       0.91044311      -0.71892508       0.61016352       1.19125033      -1.08288615      -0.01000000
C        9.57244837       4.63722250       4.36981385      -1.03713280      -0.48610501       0.08127113      -1.29304121      -0.03289016      -1.37876188      -0.01000000
C       10.27729911       4.77345561       5.51629479       0.49730727      -0.03868559      -0.33676194       2.55406821       0.59979300       3.28589652      -0.01000000
C        9.60461410       4.77704967       6.75495519       0.38261576       0.23293754      -0.72000618       0.27384741       0.43756890      -0.50276123      -0.01000000
C       10.32070663       5.08484993       7.91295951       0.70266906       0.08046090      -0.13250412       0.19271333      -0.71173175       1.20794835      -0.01000000
C        9.63836658       5.08146494       9.14530376       0.58857950      -0.15053606       0.85452486      -1.53088738       0.08103459       0.61201381      -0.01000000
C       10.31450470       5.12386064      10.36009395      -1.70397442       0.56331696       1.03459743       1.95023637      -0.32027171      -0.20358253      -0.01000000
C        9.67798494       4.93733466      11.57607356       0.05229897       1.44850225      -1.11273455      -1.38948104      -0.45419000       1.17448390      -0.01000000
C       10.34066718       4.76841329      12.80962815      -1.45313212      -0.28400249       0.30397072      -0.87817977       1.09611836      -0.15657104      -0.01000000
C        9.61498121       4.72908244      14.01568022       0.56561914       0.15876677      -0.51063791       2.47317881      -0.01954525      -0.34462177      -0.01000000
C       10.28419307       4.72605962       0.72505158      -0.51227647      -0.52045300      -1.18260787       1.10197867      -0.20229700       1.38059609      -0.01000000
C        9.61297954       4.65036926       1.98947034       1.25602940      -1.15595665      -0.95434940      -0.49190149       0.15679247      -2.57429525      -0.01000000
C       10.29711114       4.66241806       3.18139368      -0.94209990       0.48520576      -0.22445412       0.59396174      -0.16832808      -0.79133297      -0.01000000
C       11.69757962       4.71570397       3.09191271       1.01848663       0.46144413       0.31221771      -0.32155621      -0.02616217       3.09181942      -0.01000000
C       12.40098796       4.78522257       4.32047275      -1.22938703       0.52027188      -0.99247054       0.82331019       0.44701452       0.27166450      -0.01000000
C       11.72364759       4.96470311       5.53875477       0.72110547       0.54539132       0.38733102      -2.88479109      -0.85407186      -1.22601404      -0.01000000
C       12.41179191       5.10623456       6.73369250      -0.21709769       0.35173557      -0.68301281      -0.96542081      -0.42180583      -0.21867257      -0.01000000
C       11.73143642       5.06631461       7.94006655       0.31086984      -0.13893859      -0.57661879      -0.76768885       0.60978133       0.02765470      -0.01000000
C       12.44102890       5.17647999       9.13880811       0.19221367      -0.87275914       0.06876414      -1.49725118      -0.30630861       1.26130154      -0.01000000
C       11.72723209       5.14388281      10.35036571       1.19728946      -0.48924120      -0.28284944      -0.47020535      -0.07110844       0.81869963      -0.01000000
C       12.40281869       5.01869387      11.59823569      -0.26695641       1.77382965       1.56969056       0.67004445       0.22375392      -0.30050467      -0.01000000
C       11.69154013       5.07120795      12.84335799      -0.49185153      -0.72798891       0.88744282       2.31230444      -1.19263679      -1.06916057      -0.01000000
C       12.42434744       4.91227884      14.04402952      -0.36231549      -0.21728087       0.51509329       0.74619126      -0.22315208      -1.32773154      -0.01000000
C       11.69927637       4.77615914       0.71332795       0.00173180       0.39852051       0.40341361      -0.24576485      -0.01575621       0.54175076      -0.01000000
C       12.40204995       4.67049567       1.91558735       0.03345046      -0.20681729      -0.80863793       0.15664828       0.09366287      -0.87943333      -0.01000000
C        1.24904099       4.79690564       4.37658477      -1.15171681       0.14668390      -0.00778185       0.87596824      -0.15305400      -1.73517553      -0.01000000
C        1.96178320       4.94914538       5.60370083       0.08848708       0.21175144       0.05301930      -2.23987749      -0.52761656      -3.82473029      -0.01000000
C        1.20851680       5.02102881       6.72971726       1.12330210      -0.18183374       0.43897686       2.04793339       0.56697830       2.99300853      -0.01000000
C        1.92009398       5.11030786       7.95447165       0.34675452      -0.18405284      -0.25112775       0.09504774       0.15482221       0.48526662      -0.01000000
C        1.24949885       5.10331443       9.20422311       0.78886664       0.06028349      -0.14489482      -0.15948911       0.28407532      -4.53016099      -0.01000000
C        1.96640824       5.06465459      10.33626424       0.36919976       0.02034151      -0.98235811      -0.97531891      -0.77860232       3.55680862      -0.01000000
C        1.25664045       4.83157620      11.54532794       0.28912254      -0.26049678      -0.94008187       0.57802563       1.13707681       1.45860633      -0.01000000
C        2.01256624       4.84224858      12.78076253       0.80122385       0.29542419      -0.97027495      -3.36448801      -0.33261649      -1.04174362      -0.01000000
C        1.28322786       4.72228774      13.98483168      -0.55072877      -0.68292198       0.40404508      -1.04940017       0.22723915       0.24813599      -0.01000000
C        1.96863885       4.49183361       0.68877544      -0.19482879      -0.76586593       0.17511089      -0.76206689       0.83026769      -0.01502573      -0.01000000
C        1.23094561       4.60044512       1.90335268      -0.18904123       1.10697693      -0.14195259       1.38973870      -0.32436754       0.19961069      -0.01000000
C        1.96318113       4.64753642       3.12278196       0.39326502      -0.00855873      -0.07227798      -2.06103511       0.28306149       0.93422678      -0.01000000
C        3.34562569       4.67059337       3.11408607      -0.58718375      -0.27253416       0.30487850       0.64548435      -0.08751179       1.06599145      -0.01000000
C        4.03334762       4.64428851       4.37246401      -1.17448407       0.50711961      -0.50202037      -0.47067095       0.69539565      -1.59865479      -0.01000000
C        3.32145391       4.93890771       5.55624720       0.68351885       0.72243837       0.49740952       2.01746410      -0.73947394      -0.14954578      -0.01000000
C        4.00961100       4.96138951       6.76595587       0.10116463      -0.41466718       0.00381931       1.36250328       0.44677715      -0.46398128      -0.01000000
C        3.33241721       5.19452725       7.94322862       0.59292765      -0.41765913      -0.78242454      -0.65272134      -0.41864115       1.88304015      -0.01000000
C        4.04194934       5.19675795       9.18695084       0.32008299       0.17077018      -0.09613544      -1.06750507      -0.40502935      -1.06876211      -0.01000000
C        3.33096807       5.05620400      10.38021712      -1.60086936      -1.01693065       0.28238744       1.89134758       0.37391116       0.16425564      -0.01000000
C        4.05727045       4.99693660      11.58661336      -0.20741940       0.44160182       0.45671621       0.68213650      -0.58790010      -1.19890530      -0.01000000
C        3.37795550       4.86648517      12.76789852      -0.24966836       0.24186436      -0.37092135      -0.68496948       0.03820512      -0.20838793      -0.01000000
C        4.03563446       4.74248254      13.94793817       0.95021197      -0.05881234      -0.26524279       1.48508922      -0.79594224       2.47358530      -0.01000000
C        3.37294489       4.54244536       0.66779029      -0.37559456      -0.57648297       0.25466192      -0.50514156       0.76719859       0.15138538      -0.01000000
C        4.02793425       4.71157231       1.89262487       0.67680539       0.51241461       0.49439015       1.01821059      -0.14616424       0.56832252      -0.01000000
C        5.44046925       4.62215577       4.32732806      -0.52245063      -0.49876799       0.13739431       0.07057642       0.41590862       1.85311668      -0.01000000
C        6.12633415       4.66375314       5.60694390       0.11904493       0.67538068       0.14770135      -3.33313418       0.10591298      -1.73155723      -0.01000000
C        5.41031086       4.91501815       6.79847324      -0.60556657      -0.35470713      -0.25692615      -0.17553659      -0.43203455      -1.93458731      -0.01000000
C        6.11441056       5.01268307       7.97376504      -0.12308442       0.10653021       0.01752101       0.73703466      -0.15459614       1.79557370      -0.01000000
C        5.41710663       5.02502676       9.19497843      -0.70765816       1.01383471       0.49521114       1.84166482       0.16709220       1.43018313      -0.01000000
C        6.14516602       4.93470442      10.46341194       0.69963307      -0.06604486      -0.80025865       0.88055854       0.51501956      -5.03436050      -0.01000000
C        5.45269821       4.79184842      11.60274988      -0.14319675      -0.00175068      -1.43088144      -2.36637486       0.67888598       0.94993153      -0.01000000
C        6.13030901       4.76012844      12.79176664      -0.26316132      -0.47104972      -0.88536418       2.96681072      -0.11514998      -0.31683982      -0.01000000
C        5.43572425       4.65817572      13.95201136       0.23570783       0.10026798      -0.00773508      -0.07625650       0.42448110       3.79185541      -0.01000000
C        6.14010823       4.68677034       0.72163094       0.30692407      -1.68219895       0.55744070      -0.44588374       0.62100711      -1.92973083      -0.01000000
C        5.43106635       4.83385513       1.93763922      -0.03377762       0.35161774       0.41889619      -0.41801442      -0.88065100      -2.50400101      -0.01000000
C        6.14301966       4.70749628       3.09717761       0.52286217      -0.36713273       0.64632237      -0.75449383       0.49321494       3.22084583      -0.01000000
O        8.25115147       8.01779142       0.45608595      -0.64522868       0.26442059       0.36756473      -0.50091309      -0.16487291      -0.34629802      -1.23324096
H        7.48005278       8.64791526       0.60147151      -0.02562009       0.15007035      -0.03238423       0.44178551       0.24497134       0.02486880       0.64434165
H        7.81644055       7.16217866       0.30839950       0.29376825       0.06906820      -0.24232288       0.34533945      -0.60045074       0.05028618       0.56103659
O        7.37031190      15.73630758       9.79609777       0.02476118       0.48543633      -1.09622079      -1.04205792       1.38632256       0.24316430      -1.27072358
H        8.17493890      15.29750628       9.53599769       0.01413192       0.12541203       0.09813388       1.33032764      -0.95570948       0.13880710       0.64754093
H        7.48690979      16.33574769      10.59149992      -0.23413172       0.09744695       0.08351217      -0.08882085      -0.86079178      -0.15026169       0.65260780
O        7.16333681      17.40698890      12.02290286       1.45416831      -0.58078354      -0.87462776       0.52529428       1.17173159      -0.09802601      -1.23472929
H        7.73192574      18.19862519      11.81348425      -0.06493167       0.18384458       0.02006214      -0.14027987      -0.52422170       0.31339955       0.61597937
H        6.34628643      17.86667479      12.31204791      -0.18510415       0.18290458      -0.14133216      -0.18097059      -0.38952441      -0.05467379       0.62025279
O        5.88392863      25.54897827      14.10834551       0.17466608       0.45262702       0.15082974      -0.05811290       0.84217048      -0.53838531      -1.26722407
H        6.26140799      26.13793240       0.28168811      -0.06660610      -0.05829612      -0.34837811       0.63631843      -0.57222225       0.57056119       0.62574530
H        5.08422631      26.12354161      13.88378930       0.02471434      -0.20975774      -0.05601288      -0.45731582      -0.51041466      -0.04702179       0.62445557
O       10.17348677      34.51343766       4.77191824       1.07490852       0.32733711       0.28119014      -0.02383637       1.13866396      -0.21772047      -1.26445627
H        9.92693712      33.66400651       5.21821690      -0.04482508      -0.01418162      -0.07283869      -0.61182157      -0.56772628       0.33489151       0.64085883
H        9.36966570      35.11303709       4.77506443       0.18543961       0.31145898      -0.13967133       0.11480714      -0.29801784       0.45502765       0.63994867
O        0.74341532      19.70549567      14.37798800       1.19573728      -0.22692869      -0.48812200       1.45657738       2.08159972       0.25251811      -1.28785956
H        0.73573521      20.39587868      13.64088097      -0.16002966      -0.08530918       0.09085068      -0.22270888      -1.22570369      -0.14892382       0.63445270
H        0.04699720      19.06071403      14.23383727       0.17876754       0.27050849      -0.14374628      -1.57298421      -1.03739146      -0.52615136       0.65738261
O        9.71385068      10.38308281       6.04280595       0.66482728       0.27791843      -0.46737453      -1.76915920       1.01392457      -1.00705692      -1.29504716
H        9.34472637       9.81869818       6.74461681       0.03400613       0.15813783      -0.08753540       0.09561239      -0.70755297       0.56509375       0.65700948
H       10.66434853      10.53638461       6.20699821       0.40669449      -0.28388618       0.03458625       1.12587499      -0.07893671       0.34271853       0.66544223
O        8.23203459      11.91030026       2.10867715       1.49139248       0.78673067      -0.38874243      -2.47896646       0.71831652      -0.44162397      -1.28953946
H        8.06142820      12.00999015       3.10543665      -0.00280253       0.00554542       0.01168152       0.92307699      -0.65586692      -0.07496221       0.64282966
H        9.16216863      12.04595444       1.99071697       0.14279385      -0.00646917      -0.29123547       1.82604655      -0.14075723       0.15608291       0.65847784
O        3.88851656      11.60638989       4.22611733      -0.45371664      -0.00233157      -1.05140894      -0.11827276       1.69128988       0.02575656      -1.26924229
H        4.19383905      10.84708800       3.65727350      -0.03455675      -0.00650795       0.27277181       0.09485786      -0.36998690      -0.06461873       0.64166629
H        3.96638228      12.44694629       3.66150869      -0.00450861      -0.04957255       0.00746670       0.05480582      -1.11545345       0.47175629       0.62346703